/*--------------------------------*- C++ -*----------------------------------*\
  =========                 |
  \\      /  F ield         | OpenFOAM: The Open Source CFD Toolbox
   \\    /   O peration     | Website:  https://openfoam.org
    \\  /    A nd           | Version:  9
     \\/     M anipulation  |
\*---------------------------------------------------------------------------*/
FoamFile
{
    format      ascii;
    class       volScalarField;
    location    "0";
    object      p;
}
// * * * * * * * * * * * * * * * * * * * * * * * * * * * * * * * * * * * * * //

dimensions      [0 2 -2 0 0 0 0];

internalField   nonuniform List<scalar> 
487909
(
-0.885793
-0.886652
-0.888295
-0.484308
-0.888295
-28.8226
-25.3257
11.2162
-1.54613
27.5378
-5.64073
-25.0011
-6.81545
-0.0724944
-94.1913
-0.900937
46.6308
91.5304
-1.93863
-0.68703
-0.888295
-28.8226
2.7356
-18.4463
-15.1444
-1.558
-137.018
-11.1375
153.102
14.6627
-6.20201
-55.2364
-6.08898
-0.0012069
-50.5853
6.62267
7.30207
6.69482
0.0639399
0.219053
11.2162
-6.83604
-33.1849
0.0639399
52.5378
21.904
5.67424
-0.464422
-1.92228
9.19684
-0.841203
4.66682
-7.06592
26.1162
-1.71185
-0.895362
16.0488
-0.550169
-24.379
-4.00677
-35.7541
23.8646
-3.78177
-3.78177
0.293468
-5.59076
15.7516
-0.889641
-1.76188
-57.4366
-5.67878
7.52327
-0.910291
-0.896007
14.4767
-34.7824
-3.85165
-1.86055
124.869
46.8388
-1.09736
-61.1488
43.3019
9.63361
-4.44661
1.96904
-1.16376
-5.87001
-6.32453
-1.00641
2.77692
-15.6328
112.033
18.5609
-2.2088
36.4253
16.8425
11.7322
3.96832
49.3914
-0.901431
36.4573
10.7429
-3.65416
0.307805
-0.998227
0.000534279
5.11063
-0.751216
-1.71774
21.4225
10.0702
8.42282
53.845
-17.7125
-2.21817
-20.8839
-4.6057
8.67307
10.0855
-1.86055
-0.998227
-0.0144439
-7.51686
27.5173
-1.02481
-7.39484
-0.934865
59.226
9.61525
-1.57009
-0.903283
19.7382
-1.14227
35.6921
-3.06719
-2.58848
31.9533
-15.9842
5.69852
8.42282
-13.547
-0.87395
100.726
138.25
-4.76474
66.6466
-0.562119
-3.64392
1.89314
54.0913
2.85182
90.4334
6.01533
14.7927
-162.103
0.817382
9.68234
10.7801
-0.333042
0.817382
-44.8658
4.88764
-2.75163
0.825404
27.5378
153.102
10.9229
-0.464422
-1.87655
315.552
9.06885
17.4271
-1.29991
6.16615
-6.40067
-0.461214
10.3433
9.02321
92.6986
185.863
-0.542096
5.97073
71.9517
350.939
11.0786
-41.6915
1.94498
-8.72089
26.8454
-54.4385
-0.0886755
2.15901
-0.87395
8.37056
5.56506
1.55912
-0.280845
-7.43836
45.71
-8.50284
-44.8658
4.50587
-0.912944
23.388
9.9669
-0.454017
-30.236
-50.1107
69.5325
4.73241
10.531
-3.4178
-1.02519
12.8632
-3.98056
-4.42007
-38.4582
32.9394
-68.9075
-1.2348
16.0901
-53.7532
-1.92228
-1.84071
18.728
-1.03673
2.02872
-1.5881
-16.894
9.11695
-0.0314435
-67.6198
35.3703
68.4819
-3.58105
31.647
37.3475
0.585453
-11.8359
1.405
-113.269
-5.19955
76.3833
-17.9439
-18.5466
13.0968
47.0121
17.9476
5.56308
-76.9049
4.83311
-4.34743
-0.165448
-2.52353
-3.0985
-2.20886
-0.914212
1.77541
53.7591
58.3846
34.5169
2.39206
24.4694
6.32681
-0.0870163
-1.21885
6.52719
-25.5171
-2.7839
1.14462
-10.1795
26.0339
-4.82284
5.33431
45.0246
6.74756
1.35589
-0.744662
117.054
59.5073
-4.98961
-0.912944
0.415934
-2.1511
10.183
-0.654776
-9.64054
-16.4865
9.19684
-1.97218
115.564
-1.76188
11.3665
-0.669043
88.9007
-0.252378
-5.81523
-20.9052
179.712
115.485
-24.1876
5.59586
5.76327
-9.66284
-2.33483
-12.5697
-3.70709
-44.2455
-22.0808
3.2809
8.77423
1.39623
-3.64356
-4.26463
21.6634
2.65731
-0.604821
-43.4795
-0.956223
1.21488
-15.6949
-1.39708
31.3454
10.1504
7.57661
14.0468
26.7742
-27.5314
-1.44063
-5.97131
-98.8607
22.6191
-0.925845
46.0083
-11.3682
-132.823
-0.819818
18.6436
13.1168
20.693
117.329
-53.9564
11.5645
0.0562301
7.24623
-2.7839
-0.000409526
-3.48077
-7.18743
0.472657
7.78386
-1.2348
165.174
6.0311
-76.0853
200.6
-4.46507
18.8883
0.639029
17.7659
-1.12713
201.366
56.7955
-6.81545
-23.9249
11.6359
-0.841203
-104.269
186.685
-102.857
-77.1241
57.4089
-5.50962
-6.32453
0.278253
-0.92489
324.702
-2.65624
3.74194
-12.6098
110.962
-0.898389
-0.878203
57.2579
12.277
-5.65224
1.66109
-0.897543
12.6852
30.631
-0.771134
-2.46997
-2.7266
-2.03483
-7.66117
-0.974103
-0.873729
0.0886897
95.3584
-1.98766
-11.5171
4.53433
2.7356
-3.31938
-49.8256
3.32603
-0.0144439
-19.2488
71.9517
21.9484
86.6277
-0.904941
63.8009
-35.0238
7.92195
5.98241
-57.2719
22.2048
2.65413
8.15954
-94.1913
-15.3995
-42.7005
21.3815
-2.44466
27.5173
-1.87655
81.1511
11.4705
7.98996
22.4414
1.47088
7.26544
-1.93863
70.1035
-0.819818
18.4281
34.8204
-2.37279
7.28397
-11.1375
91.2098
-3.78177
-4.18542
-0.91407
5.83914
1.31945
17.5961
-77.1241
-0.889641
25.1916
18.3257
55.5326
30.4779
-0.837276
-54.331
-0.898316
112.001
-6.28268
-55.2364
4.90443
-0.889641
36.4253
-1.12005
-0.461214
-0.0314435
-0.0208453
0.278253
-3.28436
-0.876958
-80.7091
-1.25796
-3.01253
16.8959
-3.1924
-0.934865
116.933
31.8648
80.6754
4.66682
-0.901438
-0.901431
-6.26172
-0.542096
31.647
5.59586
65.9404
-80.7091
-2.64295
-10.9354
18.4328
-23.8314
-0.26002
-6.40358
-0.266912
1.9474
-32.465
75.2835
14.17
12.1222
0.000534279
-0.57555
1.94498
-5.19955
-44.2455
1.96766
116.933
10.1821
5.86689
-0.828814
-17.4192
5.13527
99.2414
127.062
138.365
0.187953
-6.23177
3.05112
17.7579
53.845
4.86652
5.70584
5.56308
1.87931
-2.7266
-0.542096
-6.97832
13.3839
10.1741
8.61289
-3.58261
-4.05008
15.7271
9.84882
7.88369e-06
1.24501
5.85268
-27.7766
10.1389
9.68234
39.7318
-0.914212
-26.2746
4.91934
3.88719
40.4916
60.628
-128.901
181.877
70.379
8.67507
8.15753
-0.90185
-0.917519
53.1365
-10.513
-3.69031
-77.1085
-1.82602
15.7938
-1.21885
63.8009
-7.06592
0.000534279
-6.83489
7.52327
-29.8345
-80.4961
-0.71702
-83.9294
-0.876958
-0.278496
-43.946
-8.1698
-1.71774
189.767
-3.55354
193.109
42.5076
6.74756
-2.33733
10.1821
-4.95052
110.239
-140.382
-15.2403
0.189388
-0.467127
-4.78138
-53.2251
-2.8427
-37.6016
-0.872197
-9.71427
120.888
6.79539
40.4916
1.83844
-81.3631
4.09284
12.1964
214.819
-6.33043
-4.25775e-05
10.1081
2.85466
-11.2063
82.7466
6.40615
15.9897
-1.15081
-1.34744
-14.1144
10.6969
3.01709
30.6947
-4.56456
-0.972452
30.0025
-3.78177
9.84882
-6.11648
72.4501
15.8524
8.82057
-1.92228
1.40523
-2.10106
-0.907098
-1.74208
-1.62313
-38.283
1.36888
-3.38055
11.25
-31.9484
41.6974
-5.19955
-5.78374
60.628
-4.80815
-17.854
-2.9735
-2.71182
-14.4343
-0.751033
-38.2539
25.898
65.8177
-154.514
1.80549
-1.59408
1.89819
12.5765
63.3372
-3.97579
8.30552
-0.898964
-2.36514
-0.000733193
-0.416919
11.758
-1.05351
-1.12626
59.5073
-0.000733193
12.8414
-0.165926
1.1764
-7.15546
2.88568
109.67
-82.6194
-29.8592
283.247
-8.12225
8.05534
-3.58208
0.000440945
-0.900937
1.75987
-18.5532
26.1162
104.084
-1.86321
-0.887004
18.3257
16.78
-112.532
104.561
283.885
8.60629
-0.90595
1.91279
-6.51474
69.6614
69.2654
-0.800837
36.2011
1.62851
9.61525
-9.56236
5.98363
10.5787
4.56453
-131.78
-0.905827
-5.28518
13.3839
-0.0444851
-26.492
-96.0952
5.52891
61.4267
16.3823
10.9229
60.628
-2.68438
-60.7186
95.4359
-0.905319
-41.3044
3.872
-5.29686
-41.6915
7.52327
24.0711
348.972
14.8457
-16.1754
-0.0287981
110.14
-54.9684
30.5019
2.78906
-140.382
10.0256
1.22397
21.0295
-15.8757
15.6763
-2.96955
2.34057
12.991
48.0121
3.59109
-0.571291
85.546
0.93622
-11.1068
3.63587
-1.61465
1.88352
46.9025
4.74183
-2.15607
-0.614279
12.9633
72.4501
31.7955
9.35024
107.35
-23.9958
-11.3213
26.7058
-13.065
8.72269
-9.1708
6.96496
46.0148
-33.8804
-36.1172
28.7209
-26.5797
-0.902058
-26.7413
29.3078
46.7646
16.6707
14.0192
197.386
166.019
-0.282575
11.3448
-4.98961
4.11715
10.0995
3.77957
41.7745
-1.22296
-57.9771
-35.9547
-0.685256
-89.2281
-44.3392
-42.6981
270.184
-10.5759
4.19596
-18.033
-0.900937
2.16127
-43.886
-6.20727
-0.878203
124.938
11.0241
-15.3057
115.564
186.685
-76.7226
-6.83489
-1.86321
83.019
29.1379
46.6308
0.146536
-12.7034
-0.913241
-1.93863
83.019
-5.41038
55.5326
44.2969
-110.109
112.033
-0.75824
-0.55166
8.27842
36.4253
10.0702
18.4328
4.96689
3.82456
17.6576
17.2308
0.505696
-0.93196
122.071
2.84784
-1.92865
-1.76188
0.000122543
1.89314
10.1741
2.23974
-20.9052
-0.902378
-12.0822
-9.51102
-6.67573
-2.22361
-1.39062
2.15144
0.441963
-31.4613
-59.7678
66.6466
-0.82155
-76.5217
7.20409
-1.84725
31.9533
5.97073
37.3475
5.76327
110.962
10.7507
19.868
69.2654
-8.25551
-15.2403
16.943
12.0566
-9.75808
-0.0740686
-0.901438
0.306268
-42.7277
-6.87903
0.237574
100.726
10.1081
10.7781
-175.977
1.66109
-0.0652902
-1.56243
5.98363
58.8434
75.1114
-0.0328371
-27.2598
-17.9439
106.666
-7.90798
-21.0919
10.9493
1.0468
17.9402
-24.7472
-3.73449
61.7159
2.65731
-6.51349
31.647
-3.47876
-2.9735
1.1072
2.48437
-0.287386
209.676
-0.909318
27.9102
3.31056
-0.309382
-30.3286
43.8135
-3.65811
25.4051
-0.912944
11.758
-7.25022
-0.00381432
-0.26002
26.7993
161.617
-10.2374
-1.02109
6.44775
-24.161
-20.5484
13.8246
323.485
56.6641
-24.1876
16.1473
-2.71182
-0.895538
-3.4178
47.8882
-0.925845
86.6277
-0.57555
0.516716
18.8766
5.51182
1.44479
2.79
4.41471
2.54937
1.21488
1.62851
-2.34098
-0.00132945
-1.61702
4.74458
16.2273
-0.84138
-9.88224
17.4517
-0.292456
5.13527
-12.9242
67.2929
16.943
-0.584342
24.817
91.5304
7.30207
15.8
-0.895362
11.2635
29.1379
14.4767
30.4779
-9.58368
-22.6307
18.5609
6.0311
284.283
17.3131
-0.426602
-81.7184
13.0133
-22.2664
-17.7591
-3.71499
1.97455
-0.811094
7.60316
75.1114
-4.06155
-4.4667
-0.0888023
-24.8182
-0.122843
4.72777
-1.39393
-4.18542
7.88369e-06
12.913
31.7955
-7.90798
-1.87655
-0.465185
-1.02109
-1.21848
17.4517
-0.91407
-0.855259
51.5453
-5.52074
10.248
13.0705
-4.84946
-32.5923
6.69259
-96.5412
-128.901
155.7
72.7013
1.1072
-44.3204
2.01156
-0.584342
-5.45822
-0.463156
87.88
1.73492
-2.20917
20.2821
22.0718
-0.930096
-1.17835
1.02923
-22.2664
-6.96852
-13.4021
12.8414
10.0995
-7.25022
-0.691961
-8.0161
-6.38867
191.487
-7.27417
8.82057
40.4831
-38.1874
-1.89897
81.8643
20.3766
137.522
-69.8312
0.364139
5.90218
1.70993
20.4654
2.16127
-2.71182
-44.3204
0.791637
-10.1307
90.4334
29.5163
8.65675
-139.907
-5.22191
-0.692314
-8.99454
-1.0776
2.15164
-11.9741
-1.05351
-0.691961
-13.9294
-0.910506
-4.11586
-37.2592
-3.98056
5.99585
58.1863
-37.2201
0.121266
85.6978
0.189388
-64.477
-1.89513
-6.41822
-44.3204
-3.30737
-55.464
-20.957
-10.513
43.8874
-2.19961
48.5283
12.7107
2.82568
-1.81044
5.7595
12.913
15.6482
-15.6949
-6.58048
-3.98056
2.8603
-7.9129
-10.6299
61.7726
142.229
22.0718
143.07
2.01993
15.9318
-8.097
24.7257
7.78961
4.19567
10.4594
20.693
-0.15218
15.8875
-6.97869
19.3858
42.4683
-4.86907
7.17203
7.24843
21.1257
-1.33287
43.4848
-21.6499
6.11518
13.16
1.86095
5.60252
2.41569
-46.4714
6.69482
-57.2719
-4.5353
-0.819818
-44.5408
37.1578
-0.907008
3.98464
5.20522
5.72577
16.8959
0.585858
-15.008
-0.901021
53.845
-0.901722
16.943
19.0119
-17.7721
12.4625
19.7382
5.13527
-0.0328371
-6.67573
-0.892557
-0.569627
138.5
2.85182
-3.58261
-0.88025
80.5656
-0.467252
-9.02748
-0.11004
-139.308
103.005
70.379
3.15625
-13.0981
-5.9302
16.429
69.1649
3.97009
81.1796
26.8454
-0.897523
16.7729
-0.00293911
16.3422
-11.9336
49.977
10.1161
-0.586638
-10.9355
-49.4962
-0.0451511
-10.1319
261.244
-3.58646
-0.68703
-2.879
4.42157
16.0249
18.5609
-9.92203
17.9471
17.3765
88.9007
-8.00806
-1.12005
-0.71702
-112.532
-110.109
-22.6307
5.20522
-1.90151
-92.2495
7.30315
-0.265373
-0.79222
-0.373911
-57.4366
4.11298
6.0041
35.754
35.3703
179.712
324.702
45.7265
8.52094
-0.908377
-14.4343
17.3131
-15.008
8.88642
-2.7521
-36.7362
7.53194
1.63629
26.1162
14.4767
-7.90212
-13.6061
8.04776
-2.1511
-9.66284
-0.898389
134.247
193.109
-0.800837
3.82456
-72.7124
19.0119
28.9872
3.52846
138.431
46.491
2.72599
8.82817
344.678
26.1162
-9.47963
26.8454
39.38
3.2809
-0.897543
143.161
110.239
-0.850901
2.84784
-1.57973
-6.67573
-6.9298
-0.716311
9.3633
-1.39708
-9.56236
5.99585
-0.520789
-2.21817
13.7315
1.09589
2.75315
-0.604821
-47.7558
1.63758
3.12571
1.83915
51.7911
-73.0058
-5.67613
8.19115
0.0517158
-0.90025
-1.81044
1.44717
-29.0553
116.934
0.511528
-0.333042
2.70063
-25.3883
7.57661
-7.89967
27.496
-81.3631
-60.7186
-8.91635
-1.21848
-13.0981
17.7659
-15.8757
52.7133
-12.0822
9.29954
17.1412
24.6292
16.6109
38.526
0.419216
16.0947
-4.71722
-0.904941
1.94498
2.00974
348.972
-11.0342
-32.5923
-1.88162
-0.68703
7.01564
22.2048
-0.550169
-77.7032
-3.66451
-3.85165
25.4347
-29.6678
-1.90151
19.6056
0.0562301
0.441963
16.7903
-0.972452
158.968
12.0566
-7.97329
261.244
-6.79401e-05
-7.40861
-1.14227
99.2414
5.56667
8.31415
31.4079
-7.90798
6.13838
90.4334
-4.05008
344.781
8.19115
31.976
-0.907098
4.28767
-33.3704
9.06885
-0.0796689
-24.161
-30.024
27.9731
21.3738
4.19161
-0.579338
-32.6955
-7.481
-83.9294
4.41471
-0.182957
-3.16739
-0.91407
1.24501
-0.265102
9.35024
-21.0919
15.5918
-0.373911
37.079
-6.79401e-05
-2.05486
72.2478
-79.4179
5.86627
-3.00683
69.2336
107.682
0.933103
-1.30664
-3.71499
-24.161
5.23496
-2.05136
-26.5797
-12.1706
0.791637
167.553
17.6071
-11.2328
47.0121
-1.63604
-1.02109
21.1217
-31.6419
-0.865214
-0.549357
18.4007
48.8927
-45.6192
-14.3027
40.1153
10.1693
-1.21885
-0.751033
-13.9294
17.6071
-0.061834
17.638
-76.9851
-6.16493
-0.552164
0.312457
41.624
-1.1198
-4.64298
14.2256
10.183
-34.2238
-6.38867
-0.686542
7.17495
18.059
-0.895538
-0.951491
10.3769
-24.9734
-0.569989
3.76436
-1.10892
-0.00168278
14.2773
4.40976
22.0391
-9.62314
-24.9734
0.122674
5.78931
-19.6858
-28.5534
9.71547
26.5768
3.81627
-7.76187
-0.520789
-0.489961
-0.000151142
22.9548
7.14635
5.98363
58.1863
-0.489961
24.1542
-3.38364
6.86561
-1.40901
-0.745231
-26.204
102.573
108.745
-1.07097
4.88916
-6.97869
1.5303
-40.2384
-2.27687
21.0715
5.40326
-40.2384
191.96
28.0867
24.0725
-76.2047
-6.41109
-45.0973
3.67468
-63.9683
5.04064
-43.2112
-192.662
0.967814
5.63473
8.68293
-0.85451
71.5431
10.4594
-0.85451
3.97147
-73.1224
19.6213
-26.0891
-1.75226
1.27851
41.7568
10.0143
-13.2358
24.4864
2.97475
-15.8383
103.323
1.03181
24.3833
-235.338
-2.5684
-0.679932
1.07539
-1.88942
-2.07684
-51.866
82.5975
-2.36777
7.80933
-0.866482
-12.0234
1.33487
-36.5019
0.00156649
0.612812
23.078
-15.6502
-55.9594
-1.6238
0.219053
13.7721
-24.8735
94.0032
-1.80377
-0.168566
-0.898316
-0.0224024
-2.37034
16.8425
-0.885927
-5.85645
9.30616
-24.1252
-14.9397
-7.95952
-9.75808
3.52846
-0.891645
-15.701
35.6921
9.46821
-17.9439
0.274291
18.369
135.744
-0.261454
-13.5576
-5.45194
-0.909318
-0.267658
18.3213
4.11705
-19.3177
-5.13885
17.4271
8.15753
-20.5484
-15.8757
249.451
-22.7323
-0.205903
59.8286
-27.0173
-0.0886755
-0.876958
2.54937
7.01564
3.66824
72.2478
51.0697
24.3282
11.1341
-48.2425
52.2106
-28.7631
-0.550034
6.16326
-74.0382
-6.4916
-50.5853
67.4262
-5.67878
-22.2016
35.6921
-10.7312
6.40615
1.97455
-5.69249
-11.6714
9.64336
139.477
1.13068
-0.426602
12.1959
-0.972452
-4.89625
-45.7278
10.3573
-0.218473
-6.79401e-05
43.755
-3.65416
5.69852
350.939
-11.8359
-2.33483
-0.924747
16.8959
42.5076
36.2011
-38.2539
-5.45822
-35.2498
-6.31986
-0.891645
13.8747
-14.7402
42.2541
75.8582
-61.1488
6.50095
-4.76474
1.77715
1.15267
-16.2309
12.6852
4.66682
-81.9451
58.3566
4.21934
-3.87983
-0.892557
0.000233196
138.513
15.6599
2.09403
23.0991
-0.000138593
-1.18339
-1.86321
90.4334
-0.280845
-4.34743
-0.732714
-41.1581
65.9404
-37.6016
-96.0952
-0.902378
-6.48473
-3.95751
31.976
78.1643
0.934907
-77.9458
10.5787
-37.2201
-0.000151142
7.058
0.817382
9.9669
13.3244
0.474746
4.94851
-0.266912
-5.91485
95.4359
-31.4613
-69.1705
24.3985
27.9731
249.451
27.9644
12.913
-6.51148
-16.9111
6.69753
-4.34743
-7.93714
12.8632
12.7244
-11.3682
4.34328
7.6568
6.40615
14.8457
37.3475
-1.70474
16.3422
201.366
-2.96955
20.693
71.5431
0.222565
2.24175
-298.294
10.2926
17.7078
-1.00859
-8.7501
7.24623
-42.7005
127.062
30.0025
21.0295
-9.75808
-0.463156
-3.58646
8.26444
-0.863378
74.6769
-1.04151
14.2234
74.0127
16.983
-0.870659
-0.25844
10.3991
18.8276
129.09
-0.893459
-2.7266
-1.74208
227.421
-1.52514
-28.585
-1.12005
5.23496
144.279
12.4625
16.4658
0.902702
9.90255
-3.09885
47.5232
46.9454
-12.6142
-35.3521
30.8999
5.83914
5.85268
-17.854
2.44346
-10.5825
-5.90832
-0.367059
14.2967
43.755
-38.301
0.400247
-0.913241
-27.2967
112.001
-0.93196
7.30315
-2.06527
-3.49136
-3.87223
-36.7362
-45.7278
51.5484
-1.06659
-0.0740686
-10.1307
13.8747
76.8987
-3.06719
-88.9284
-38.0655
9.3633
15.6599
167.944
-1.64034
14.7927
9.84882
-12.9569
-0.90025
0.934907
-2.70928
7.70772
41.7745
-1.86229
-0.910506
13.8246
52.7133
27.9644
-2.74803
-33.5989
61.7161
0.931861
2.15901
-0.278496
1.21488
22.2048
22.3115
0.16937
-3.95335
2.23883
-11.8354
-6.20727
-28.9013
18.5089
-10.1072
-0.67873
-47.6828
-12.6379
14.857
5.55573
81.7013
-0.288915
-1.45788
9.11695
15.9897
-0.917368
11.3942
198.231
-11.2421
-0.893591
-2.40686
-42.0632
-7.9129
-2.21817
-2.78181
5.56308
-0.899161
-8.91692
-9.87029
-33.7413
-20.1002
-2.095
-9.9032
100.535
-22.0596
-0.261454
-3.71782
-20.0945
-58.5378
20.0231
-0.463156
17.4889
-29.0553
16.8223
-16.9111
-0.246519
-0.892739
-5.86198
26.6955
-38.4039
-24.3315
15.6199
-9.64054
-17.7693
-7.27417
1.41058
-2.74803
-2.398
76.8255
1.10833
8.67506
9.29954
3.98022
0.222565
-7.28451
-19.625
144.769
-37.3723
-0.887004
-24.5761
-65.6997
-59.5312
23.4031
-1.93559
-0.165448
-3.63578
-1.82602
-4.78369
1.57254
-42.6522
53.3722
3.46375
14.2234
-32.6699
-3.77474
0.121266
22.9548
-0.882276
-4.31756
9.07793
-3.42892
-9.13416
-2.89346
4.89594
16.7802
-12.2137
27.6817
-16.6623
12.2867
-38.9832
0.00216482
0.902702
15.6482
-0.675081
-0.00752211
-82.438
-52.0176
3.02045
-1.77387
15.909
5.74139
9.00704
-0.109957
-40.9161
125.239
-16.63
5.98982
-0.81202
11.0976
6.10984
-8.50111
10.4594
-7.06259
-3.14731
-3.41064
-0.547971
10.8648
-0.865021
76.1184
-4.65766e-05
17.2597
-0.459776
-33.9179
21.3841
49.334
-0.198764
3.82626
-0.898389
107.35
80.6301
-0.679932
-61.4798
-342.689
1.10809
-0.0105236
-22.4672
-0.058114
-1.67723
7.32366
-6.48857
-29.9942
-55.6908
1.41161
-10.266
360.529
1.01809
18.4245
197.386
369.721
-7.61155
15.6482
3.1133
0.984617
-20.1183
-19.0322
23.3156
228.081
3.83632
-0.770559
7.50673
-0.208955
212.041
36.3288
-21.2848
-3.45242
15.0925
-11.1851
-5.9302
-16.2914
2.96357
-77.1908
-0.0798249
-3.54255
-0.59554
8.42282
20.4477
-8.51189
-12.5697
57.2579
-5.45795
6.74756
6.05782
25.9421
9.99997
-48.4861
-0.986015
25.1811
46.8388
-6.28268
122.071
-0.895538
-18.6368
12.2331
66.6466
7.53194
-20.4939
-4.6057
7.7124
-0.901438
-15.2403
-14.7402
169.468
-2.58848
-0.569627
-7.90798
1.25567
2.09403
-0.863301
0.34368
-38.6034
33.1485
-2.79453
6.01533
73.3306
-3.22162
-0.956223
-0.873729
0.860986
-0.917519
5.52891
-12.0822
12.913
-9.02748
-0.907098
15.2137
-2.70928
8.85716
-43.946
-8.37457
-0.914519
-32.343
-44.8658
-20.6909
29.816
19.056
-49.8256
1.9474
17.0511
-0.923473
-59.7678
-0.546084
16.429
59.1755
-15.4505
-18.838
-87.3342
-3.36511
-0.88812
-1.15081
9.58216
11.0995
180.312
162.655
-18.1496
3.709
10.756
18.1644
-5.55082
23.9078
5.69694
0.477232
-0.91407
72.2478
1.698
32.9513
2.94244
17.7579
-1.13481
-0.920362
-0.901823
7.87961
-57.9415
-2.7839
-5.08546
13.0473
-0.911366
159.444
9.57215
-0.385306
-1.15081
72.2478
77.7921
8.46245
9.30932
-94.9602
9.07793
8.18183
-0.165926
8.82057
-6.16493
-1.17448
-4.05354
5.35
0.815265
-6.59905
8.54046
-8.03444
29.7046
-0.0240659
-2.35439
9.64336
7.12508
18.3257
8.65675
-25.782
-66.1931
-0.735278
88.2238
10.2786
-3.38055
-0.895538
1.31945
21.2853
-2.9735
-23.9958
7.5917
81.8643
4.11298
-131.78
85.6978
-10.8025
-20.4103
10.8247
-4.12359
5.21145
-3.12963
-2.42638
-73.4067
-7.07885
-24.1692
16.0393
8.67507
-3.97579
-3.73468
7.24623
90.4334
-1.78268
5.40326
-0.892739
100.584
9.57215
-4.36222
-21.694
-3.50168
-102.251
-12.0606
-1.0705
-45.1248
288.49
11.7262
171.21
-7.15546
70.6557
0.994143
15.8875
-0.928098
19.3867
58.3566
-14.5839
-15.1428
80.1301
-47.3515
56.0723
2.13651
-0.886145
65.093
-17.0814
-5.87363
14.3281
266.419
92.5587
-0.878203
-23.9958
-17.4702
-24.1355
-6.56206
-0.732714
-2.35319
-0.735278
14.7205
16.8174
-96.9036
-6.71052
-21.991
-4.55304
-31.1322
13.0905
3.15719
25.4273
-0.2773
-7.5982
4.74458
5.31114
19.2951
72.3474
-5.10962
-4.31756
-21.328
21.0758
34.8628
-1.56312
133.652
47.1834
-2.46543
-14.953
11.4948
-31.5935
50.7396
47.2341
-7.13868
-6.11414
-3.43994
-1.50268
9.60262
31.661
-82.438
-143.185
61.4267
72.8257
352.182
-39.0011
-0.857253
5.83766
-89.3948
15.0868
13.848
-0.772915
7.35515
-16.2431
49.7009
70.493
29.7786
28.3628
2.24175
-29.9891
34.7621
0.0693146
24.2822
3.65984
7.06054
5.51469
-52.5678
-2.77211
-63.4595
-39.8795
-120.303
-24.7619
-1.50056
9.56378
2.76501
-5.85045
49.3914
8.20423
-342.689
-2.85947
3.52353
8.67307
75.2835
63.0876
1.78757
-63.8321
20.2641
26.8445
-6.23177
128.271
-10.2875
23.0991
10.277
94.7752
-3.57299
-0.00690611
39.0789
1.44717
-6.17792
17.1612
-4.79714
85.6572
-89.9902
0.748158
-3.77578
1.47985
-6.51148
-3.36511
-7.06844
16.2067
15.5726
8.37056
-1.52693
32.7695
-33.913
0.0209214
4.22558
31.661
-6.64514
13.1101
-89.8026
-0.930397
-0.872197
11.2635
5.56667
14.2234
23.7087
3.87163
-0.944012
3.94859
35.7956
-34.5378
8.45402
-1.34744
-2.04015
4.19161
119.603
-6.8137
-97.7329
13.6897
24.1189
13.4529
-2.0958
66.8466
-61.6058
-1.62313
-0.907099
-79.4179
-0.913241
10.8247
41.513
39.1832
30.8672
-4.82103
-0.917327
-14.236
9.27629
1.14462
-6.92186
1.73492
-0.916285
9.3633
-4.36222
-1.00334
12.3251
12.4287
-2.01921
-84.2866
5.10062
-32.8006
33.5338
9.19684
4.72436
-1.36991
-0.552164
61.7161
14.5486
-10.5724
1.72744
-28.3593
-9.64977
63.2478
81.2723
361.609
-6.50508
0.827207
282.855
16.78
-22.8242
-0.00168278
5.55573
14.7205
-21.1975
13.7862
10.248
-17.3865
9.63361
10.0702
-0.562119
3.58123
1.36752
-3.64356
26.7742
-0.901431
0.189388
7.63081
0.000122543
-24.8182
-40.8268
6.13838
-2.05395
-12.1144
0.34368
-0.214311
11.1014
-157.406
13.9687
-9.42014
45.71
9.53415
-24.9401
15.93
-4.56278
-5.86198
61.4267
-9.51102
31.7955
-33.7314
-13.6246
-19.3177
7.70772
-1.58137
0.473821
9.57808
46.7646
16.6707
-10.498
279.054
2.39206
-6.97869
18.2524
144.769
214.819
-19.2946
11.9027
-0.855259
59.307
-0.0885422
-0.205903
-33.5989
-0.907098
-7.06844
-6.26183
20.3236
79.3308
-9.09788
109.624
-0.0882955
-0.819818
-1.88942
0.121266
9.49505
-0.0287981
39.8904
-1.59473
49.977
1.24501
51.0697
-3.95335
-20.6909
10.1048
8.99659
-4.3957
8.05001
12.6184
-139.961
-4.98961
-0.0328371
94.0032
0.187953
-46.4645
4.97612e-05
48.8225
1.73492
-2.879
-63.646
-50.5853
8.78045
59.1755
3.87163
6.8663
-3.04948
11.9233
35.0237
32.3453
22.4969
18.8883
-2.33032
5.47066e-06
-6.64514
13.6699
-1.56243
12.6469
-112.532
70.4447
28.6265
-0.897488
-18.1496
2.78838
27.1905
-1.53999
7.87269
1.70813
-0.00184022
18.5009
123.693
-0.205903
-22.2812
-6.8137
-16.9457
17.9402
20.3766
-0.849079
-0.549357
14.0972
-2.095
2.94244
41.513
16.2839
27.3962
20.9784
7.86661
68.071
0.14489
66.2202
-46.4864
-17.8616
18.1185
1.11972
-0.799934
5.95557
56.459
3.72312
-2.16175
-21.1259
-0.385306
-0.919534
-6.66123
-9.83798
-9.13416
-4.32006
4.36059
9.19448
7.25341
4.96289
79.959
2.88568
-56.9481
161.617
8.82817
3.82456
-0.895538
4.21934
3.05112
9.73671
-10.5724
-18.0077
-18.6039
12.9172
-2.68073
5.85268
12.9625
100.834
-37.2201
-1.75409e-05
242.489
15.0926
-0.958687
-10.513
-0.960535
319.712
10.8867
0.209498
11.0927
-21.1975
-9.66821
5.56506
-32.923
-0.00132945
-0.549357
-11.8677
-49.4112
-54.3964
-0.921243
-17.0421
-79.4769
-25.8158
-9.86222
-27.5174
6.86561
5.83532
9.07793
-4.12359
9.33103
-41.5488
3.86885
108.093
35.3703
-14.1144
-4.06155
-0.985404
25.0699
17.0288
61.7082
5.56491
-12.765
-4.86907
0.511528
24.0725
-4.34743
-35.1327
51.5453
5.86627
3.65676
26.019
16.2839
6.63221
8.12346
-4.18124
-35.8154
3.85735
-25.7057
8.65886
-8.13596
94.0663
-87.1281
-2.59815
-41.7228
-6.66123
-0.324393
-27.7773
-53.3115
5.34388
-11.2939
15.9426
14.0031
-1.97218
-2.67883
0.983312
0.312457
0.931861
86.372
18.4275
-0.0732399
-2.82372
-1.09005
-51.866
16.983
1.10809
17.0843
6.0246
-22.0808
3.49825
-5.22191
14.2773
-75.0554
-12.4906
18.2262
0.0827312
-0.00084243
4.37173
-0.900943
5.92462
-17.7236
184.325
-2.56456
11.1723
1.77126
-4.31756
-3.71242
20.7896
2.12284
34.8628
-41.5488
-0.897228
-3.79241
-0.25844
-0.0392225
-0.900357
-48.5352
33.208
4.30544
-10.3568
-41.61
-7.64962
-24.781
-0.0798249
-2.41521
13.6699
-1.57354
-0.000418782
2.11204
57.1842
-77.9987
-77.0217
-11.0315
9.29786
-1.39163
20.6971
-4.67276
18.5947
117.317
-44.2241
14.932
72.8257
3.65676
12.5067
-16.9457
5.08039
-11.503
-1.19788
23.0841
0.00110948
20.3152
-6.66123
-0.643559
10.0654
-110.648
4.55725
-60.7456
-86.6968
-1.87118
-33.7726
-18.4557
-0.37023
-25.9094
0.836002
11.6246
4.50442
52.0816
-49.5898
225.84
11.6711
10.6901
-0.76832
11.6359
3.59109
11.4306
-73.1224
8.9326
16.0964
5.34388
-2.74043
-6.86371
-4.32006
2.35745
-32.8052
-34.493
-17.687
-0.902164
29.0033
-0.953291
-35.1693
-79.9457
18.1944
-0.766645
1.21841
-2.11756
-1.9148
-24.4349
-0.0227232
126.29
-15.1491
0.296822
11.2963
13.5921
-26.702
-0.305268
-0.810458
5.34822
-2.2274
22.9548
25.308
3.77211
1.80375
-0.285737
-6.27574
57.2611
-1.06851
7.26493
5.99795
17.1384
-11.1964
94.9653
-7.52654
9.23551
-3.24546
-162.103
14.3929
-7.78201
-15.6949
2.94136
-10.9354
-64.221
16.3823
-6.67573
-1.80377
-82.438
-4.79714
19.7808
4.50918
-0.873729
-33.7901
15.0926
27.9102
60.5296
52.8573
7.37575
24.4694
-1.44063
-0.0144439
-28.0958
-27.3314
46.5198
-0.82155
51.5453
3.97009
-0.579338
13.1101
42.6684
-1.62582
3.62559
-34.1199
72.4803
10.2789
-0.000325938
3.15207
4.95138
-88.1939
22.3909
9.24686
-1.34744
110.14
10.7507
155.7
-3.79583
7.3476
24.3282
-2.02539
29.816
-6.64514
-0.857253
7.02305
27.5997
162.549
65.1375
-0.912944
-3.48077
27.5173
-97.541
1.18809
2.28132
10.5499
-2.20917
-44.5946
0.984617
1.14462
5.55573
-15.4505
-0.944012
-2.42131
-0.0052568
-23.4006
-43.0053
16.7756
19.4113
0.639029
5.09369
13.3839
1.36888
73.5388
5.98363
-7.25022
8.34309
-0.835064
1.13068
-1.73702
21.1432
13.6897
-60.7314
3.54768
0.205446
28.4483
-10.5092
-223.388
-5.45795
-23.2206
9.68234
-14.4343
2.91045
-24.7472
137.522
4.33989
11.3669
27.6898
149.039
17.7579
1.0468
6.63221
-1.18339
-9.6483
-157.406
10.7801
-27.7766
7.34179
-31.1391
-0.000151142
-0.898964
46.7646
27.9102
0.776933
-3.69031
0.702844
-14.7402
-2.53492
-1.15081
12.3251
72.4803
14.4655
1.55912
189.767
-1.61702
5.38338
-298.294
-28.6409
10.6258
7.02305
-35.9547
-10.2374
-3.98056
-13.3554
19.8323
-3.87983
-29.7297
8.18183
-3.04948
-0.0052568
52.5049
45.6389
12.9707
9.7565
16.1768
-11.1523
-32.6955
-0.579214
-66.1931
11.0241
10.7117
43.8874
18.464
12.6452
65.9404
-0.165448
1.36888
-5.52074
-3.00683
-0.00532084
5.21145
27.3962
-11.0811
0.00108337
21.1135
-7.01235
12.5842
1.71495
-31.115
-1.59408
142.229
-19.1342
16.2323
40.8965
-9.83798
113.622
-7.71242
-0.897228
21.814
-2.90893
-41.1255
4.64382
23.363
98.7524
-0.761138
41.624
-1.92604
6.43074
12.0882
52.5049
1.48082
-76.2047
-7.93714
3.02045
-6.58075
31.7955
13.5039
3.2809
-87.7576
-0.692314
9.9999
1.54105
-96.9036
0.515444
-0.361894
-0.908871
5.03617
8.16672
0.752562
16.6109
-1.08328
30.4978
-0.547971
-0.715424
-83.2327
-3.93875
-88.9233
8.67575
-1.56312
19.0037
-3.48983
16.9957
1.69694
0.209709
133.988
125.523
16.6365
-2.1881
-11.418
82.5975
-1.26652
-0.0105236
152.086
39.8904
1.80375
-3.50477
12.6121
-8.09606
-3.52304
-0.997095
2.79154
-15.3828
-8.79478
18.749
-2.66762
-3.48077
348.972
2.8603
-1.50477
47.5232
352.182
-21.328
3.2809
4.50918
-6.32126
-1.94532
-5.24199
9.07883
-1.90658
-6.47061
-27.5947
92.253
-5.18362
8.37651
59.7178
-20.1298
33.6567
-111.493
9.38409
167.095
13.8112
-1.56243
-1.62582
3.24935
-0.0470368
-0.571291
-0.0233368
-2.02574
-0.912492
3.65984
60.3825
-36.8782
26.578
20.3627
109.592
9.22765
-1.71228
-75.8835
-23.2584
7.23396
4.303
-58.6548
32.9394
0.472657
-30.4466
-17.859
2.2119
-18.4519
-2.89699
66.8466
6.33599
181.337
80.4309
-3.62964
17.147
-4.53447
-21.7065
1.48706
-0.271494
-0.799934
-129.57
-5.65224
-120.146
16.6787
-51.866
-0.892839
-2.29146
-130.314
-3.50477
0.847521
1.36628
17.418
308.013
-216.354
32.8931
9.80043
65.0179
30.7879
7.66957
14.7462
-20.7389
-86.0281
76.6426
54.5903
2.40822
9.0676
-0.00020086
11.1375
-37.3227
-0.111957
296.762
19.197
-14.3167
4.34276
0.3962
-29.1646
-162.501
0.178164
-1.32555
-0.846639
-0.913506
-52.0176
-12.8344
2.12284
-8.02082
2.91045
21.7926
-0.623927
15.4715
-0.940659
-28.8978
99.7525
7.82421
40.5302
-6.55562
-38.8595
-0.0512799
43.5161
287.814
2.98781
-0.000591278
3.8664
-59.4826
-67.285
3.4306
1.01072
-18.8771
21.7021
-7.10232
11.928
-17.0951
81.1796
18.369
-0.547971
-89.8026
14.7328
7.55567
195.36
333.686
0.825404
69.5325
6.32681
-5.97131
-19.2488
14.17
0.302472
-5.29686
-23.1225
-1.46749
81.1796
23.249
-27.0173
7.38458
-2.70928
10.1668
-27.0173
14.4655
3.94314
1.78097
32.9394
0.150136
13.1168
34.0071
-4.85295
-1.97378
20.9147
98.7249
0.000783859
-4.64245
0.16765
11.1341
-11.8354
1.42475
24.4121
-72.3998
-20.1183
-6.92186
-47.7558
-5.65224
82.5975
8.37187
24.3968
3.05112
72.4501
2.34057
9.78011
20.2821
-15.5228
-3.00683
-5.67878
-14.163
-18.838
3.94859
-6.65447
-34.4215
1.48082
-12.2346
-7.66009
-4.47972
-36.7139
-81.2072
-7.02673
-10.5407
201.477
12.1624
-0.691961
-7.97594e-07
0.791637
-4.30952
-42.0632
22.1927
24.1189
-46.6173
43.8874
-1.83591
-26.6142
-0.846639
-0.904941
-89.3948
-0.89486
-39.6751
-0.914999
-3.83503
10.5199
-69.8312
5.84517
48.8927
-90.9612
-48.0585
34.7235
30.8672
5.35625
0.00108337
21.4724
-0.345481
-0.333042
10.1389
-3.65811
0.511528
-0.363076
-2.36514
16.6707
3.31056
-6.73415
-77.1085
-2.71182
-3.04756
-0.262646
162.083
-38.3081
6.95923
-7.67442
-4.74209
-3.55354
4.74458
-84.1433
10.2926
-0.920362
8.05001
-82.6194
-0.195512
-0.897404
0.0256758
6.79539
30.4779
-0.000144208
8.67506
25.114
-28.3593
-2.82372
1.48082
9.05221
42.9062
-0.202854
3.01709
-0.0888023
67.6611
15.7131
-0.735278
-15.3057
9.03097
-2.19961
3.12989
-0.0285991
-37.6016
-2.52353
-3.38055
10.248
-0.00084243
-0.908871
-1.6989
20.9784
-11.6957
6.5227
13.7388
-15.267
-31.9398
-4.92747
-4.82284
-0.528885
22.0718
-0.865214
-0.745231
0.474746
-9.13416
1.55912
-2.05395
-8.45044
16.9957
-6.50373
285.876
-34.032
-1.76188
-20.8279
81.8643
-0.3743
-0.900575
2.13651
10.3904
7.24843
2.70063
-0.738332
12.8632
10.2613
-21.694
-33.7314
14.564
4.50918
283.885
112.152
22.0391
-0.822939
-6.71052
-50.8763
0.836518
-1.6989
-38.3552
117.156
0.709652
38.526
-1.75226
0.880823
0.561135
80.1301
-0.860574
9.3861
24.1542
-5.27576
133.652
108.093
-85.0468
-69.1447
35.0237