/*--------------------------------*- C++ -*----------------------------------*\
  =========                 |
  \\      /  F ield         | OpenFOAM: The Open Source CFD Toolbox
   \\    /   O peration     | Website:  https://openfoam.org
    \\  /    A nd           | Version:  9
     \\/     M anipulation  |
\*---------------------------------------------------------------------------*/
FoamFile
{
    format      ascii;
    class       volScalarField;
    location    "0";
    object      p;
}
// * * * * * * * * * * * * * * * * * * * * * * * * * * * * * * * * * * * * * //

dimensions      [0 2 -2 0 0 0 0];

internalField   nonuniform List<scalar> 
487909
(
-1.77722
-1.77936
-1.77924
-1.77066
-1.78344
-1.78144
-1.77302
-1.78307
-1.77289
-1.75674
-1.78908
-1.78564
-1.77753
-1.78539
-1.77533
-1.75955
-1.78836
-1.77713
-1.75939
-1.73396
-1.79572
-1.79143
-1.78376
-1.78981
-1.77999
-1.76492
-1.79084
-1.77972
-1.76232
-1.73745
-1.79456
-1.78298
-1.76445
-1.73725
-1.70019
-1.80271
-1.79826
-1.79112
-1.79592
-1.78642
-1.77236
-1.79557
-1.78466
-1.76791
-1.74411
-1.79723
-1.78578
-1.76759
-1.74091
-1.70454
-1.80106
-1.78987
-1.77144
-1.74353
-1.70428
-1.65271
-1.80937
-1.80547
-1.79888
-1.80312
-1.79403
-1.78116
-1.8021
-1.7915
-1.77565
-1.75337
-1.80233
-1.79111
-1.7736
-1.74791
-1.71288
-1.80394
-1.79291
-1.77489
-1.74752
-1.7089
-1.65804
-1.80719
-1.79709
-1.7797
-1.75223
-1.71213
-1.65771
-1.58851
-1.81501
-1.81232
-1.80628
-1.81072
-1.80205
-1.79049
-1.80982
-1.79957
-1.78483
-1.76437
-1.80938
-1.7985
-1.78194
-1.75764
-1.72451
-1.80943
-1.79872
-1.78149
-1.75518
-1.71776
-1.6683
-1.81026
-1.8004
-1.78352
-1.7567
-1.71726
-1.66344
-1.59479
-1.8123
-1.80393
-1.78841
-1.76256
-1.72305
-1.66731
-1.59436
-1.50482
-1.81906
-1.81814
-1.81256
-1.81795
-1.80971
-1.7994
-1.81797
-1.80811
-1.79455
-1.77607
-1.81771
-1.80725
-1.79183
-1.76924
-1.73841
-1.81702
-1.80677
-1.79066
-1.76585
-1.73015
-1.68269
-1.81613
-1.80672
-1.79083
-1.76529
-1.72715
-1.67449
-1.60693
-1.81554
-1.80749
-1.79262
-1.76762
-1.72894
-1.67383
-1.6012
-1.51177
-1.81584
-1.80964
-1.79668
-1.77351
-1.73608
-1.68077
-1.60564
-1.51121
-1.3999
-1.8211
-1.82232
-1.81708
-1.8241
-1.81622
-1.807
-1.82573
-1.81627
-1.80386
-1.78732
-1.82651
-1.8165
-1.80234
-1.78159
-1.75329
-1.826
-1.81631
-1.80157
-1.77859
-1.74499
-1.7
-1.82424
-1.81548
-1.80101
-1.7773
-1.74102
-1.69003
-1.62407
-1.82173
-1.81429
-1.80071
-1.77734
-1.7403
-1.68644
-1.61447
-1.52527
-1.8192
-1.81342
-1.80128
-1.7792
-1.7429
-1.68843
-1.61361
-1.5189
-1.40692
-1.8174
-1.81362
-1.80364
-1.78398
-1.74999
-1.69693
-1.62154
-1.5236
-1.40622
-1.27414
-1.82091
-1.82442
-1.81936
-1.82852
-1.8209
-1.81247
-1.83234
-1.82321
-1.8118
-1.79694
-1.83491
-1.82536
-1.81241
-1.79348
-1.76767
-1.8355
-1.82643
-1.81317
-1.79221
-1.76092
-1.71868
-1.83385
-1.82588
-1.81314
-1.79168
-1.75771
-1.70881
-1.64489
-1.83029
-1.82374
-1.81198
-1.79098
-1.75631
-1.70427
-1.6333
-1.5445
-1.82561
-1.82065
-1.81012
-1.79018
-1.75609
-1.70332
-1.62914
-1.5339
-1.42063
-1.82082
-1.81756
-1.80858
-1.7903
-1.75784
-1.70603
-1.63118
-1.53278
-1.41409
-1.2803
-1.81678
-1.81541
-1.80853
-1.79285
-1.76339
-1.71433
-1.64081
-1.5412
-1.41853
-1.27946
-1.13095
-1.81849
-1.82423
-1.81915
-1.83076
-1.82327
-1.81524
-1.83709
-1.82821
-1.81753
-1.8039
-1.84205
-1.8329
-1.82102
-1.80367
-1.78005
-1.84456
-1.83611
-1.82433
-1.80536
-1.77637
-1.73688
-1.84401
-1.83691
-1.82608
-1.8071
-1.77571
-1.72916
-1.66756
-1.84042
-1.83496
-1.82544
-1.80737
-1.77567
-1.72596
-1.65629
-1.56809
-1.8345
-1.83069
-1.82246
-1.80561
-1.77476
-1.7245
-1.65134
-1.5554
-1.44033
-1.82735
-1.82509
-1.81807
-1.80252
-1.77308
-1.7238
-1.65005
-1.55081
-1.42957
-1.29243
-1.82019
-1.81943
-1.81372
-1.79974
-1.77228
-1.72506
-1.65258
-1.55261
-1.42815
-1.28647
-1.13523
-1.81399
-1.81478
-1.81079
-1.79916
-1.77486
-1.73125
-1.66176
-1.56274
-1.43615
-1.28989
-1.13428
-0.977025
-1.81409
-1.82175
-1.81646
-1.83056
-1.82306
-1.81499
-1.83951
-1.83074
-1.82043
-1.80743
-1.84721
-1.83834
-1.82725
-1.81105
-1.78904
-1.85229
-1.84437
-1.83389
-1.81666
-1.78969
-1.75265
-1.85371
-1.84748
-1.83856
-1.82206
-1.79326
-1.74907
-1.68987
-1.85115
-1.84688
-1.83983
-1.82503
-1.79669
-1.74965
-1.6815
-1.5941
-1.84501
-1.84261
-1.83722
-1.82423
-1.79748
-1.75048
-1.67872
-1.58201
-1.46481
-1.83639
-1.83555
-1.83133
-1.81973
-1.79473
-1.74924
-1.67729
-1.57694
-1.45202
-1.31004
-1.82671
-1.82711
-1.82369
-1.81304
-1.78957
-1.7461
-1.67577
-1.57522
-1.44726
-1.30035
-1.14373
-1.81733
-1.81879
-1.8161
-1.80645
-1.78467
-1.74365
-1.67599
-1.57708
-1.44845
-1.29862
-1.13917
-0.978657
-1.80928
-1.81174
-1.81013
-1.80216
-1.7831
-1.74586
-1.68235
-1.58642
-1.45795
-1.30494
-1.14082
-0.977629
-0.821047
-1.80814
-1.81722
-1.81157
-1.82796
-1.82028
-1.81175
-1.83932
-1.83053
-1.82019
-1.80712
-1.84984
-1.84111
-1.83042
-1.8148
-1.79361
-1.85786
-1.85035
-1.84082
-1.82488
-1.79939
-1.76417
-1.86198
-1.85651
-1.84926
-1.83497
-1.80847
-1.76641
-1.70937
-1.86139
-1.85831
-1.85373
-1.84223
-1.81731
-1.77301
-1.70649
-1.62001
-1.85614
-1.85529
-1.85303
-1.84436
-1.8223
-1.77912
-1.7091
-1.61164
-1.49217
-1.8471
-1.84799
-1.84722
-1.84056
-1.82122
-1.78072
-1.7113
-1.60975
-1.48026
-1.3322
-1.83573
-1.83779
-1.83762
-1.83182
-1.81424
-1.77643
-1.70957
-1.60843
-1.47541
-1.32076
-1.15619
-1.82371
-1.82645
-1.82631
-1.82056
-1.8038
-1.76804
-1.70421
-1.60574
-1.47317
-1.31616
-1.14895
-0.981935
-1.81249
-1.81565
-1.81543
-1.80966
-1.7936
-1.75977
-1.69915
-1.60423
-1.47385
-1.31637
-1.14697
-0.979436
-0.81991
-1.80308
-1.80656
-1.80657
-1.80147
-1.78712
-1.75648
-1.70034
-1.61
-1.48224
-1.32376
-1.15031
-0.978807
-0.818874
-0.672268
-1.80122
-1.8111
-1.80496
-1.8232
-1.81523
-1.80585
-1.83654
-1.8276
-1.81681
-1.80301
-1.84966
-1.8409
-1.83017
-1.8145
-1.79321
-1.86071
-1.8534
-1.84435
-1.82907
-1.80434
-1.77004
-1.86796
-1.86305
-1.85703
-1.84438
-1.81959
-1.77912
-1.7237
-1.87012
-1.86808
-1.86568
-1.85712
-1.83528
-1.7935
-1.72848
-1.6429
-1.86677
-1.86744
-1.86831
-1.86404
-1.84681
-1.80766
-1.73958
-1.64148
-1.51983
-1.85843
-1.8612
-1.86425
-1.86316
-1.85036
-1.81578
-1.74957
-1.64693
-1.5123
-1.35736
-1.84642
-1.85048
-1.85432
-1.85459
-1.84458
-1.81428
-1.75234
-1.65089
-1.51155
-1.34688
-1.17208
-1.83254
-1.8371
-1.84059
-1.84049
-1.83117
-1.80343
-1.74575
-1.64847
-1.51028
-1.34247
-1.16353
-0.986856
-1.81861
-1.82313
-1.82561
-1.82417
-1.8141
-1.78722
-1.73268
-1.64016
-1.50621
-1.33966
-1.15945
-0.983137
-0.817712
-1.80611
-1.81029
-1.81171
-1.80895
-1.79797
-1.77154
-1.71952
-1.63153
-1.50253
-1.33888
-1.15842
-0.980992
-0.817466
-0.668833
-1.79597
-1.79972
-1.80042
-1.7971
-1.78639
-1.76179
-1.71359
-1.63088
-1.50677
-1.34501
-1.16227
-0.980506
-0.81456
-0.667854
-0.537801
-1.79402
-1.80399
-1.79729
-1.81675
-1.8084
-1.79789
-1.83145
-1.82223
-1.81065
-1.79554
-1.84668
-1.83774
-1.82652
-1.81015
-1.7879
-1.86054
-1.8532
-1.8441
-1.82875
-1.80394
-1.76952
-1.87102
-1.8664
-1.86102
-1.8492
-1.82529
-1.78561
-1.73102
-1.87643
-1.87514
-1.87436
-1.86801
-1.8485
-1.80863
-1.74474
-1.65986
-1.87582
-1.87782
-1.88146
-1.88112
-1.86831
-1.83292
-1.76672
-1.66813
-1.54459
-1.86925
-1.87387
-1.88072
-1.8853
-1.87931
-1.85109
-1.78856
-1.68506
-1.54521
-1.3832
-1.85772
-1.86396
-1.87224
-1.87935
-1.87814
-1.85685
-1.80121
-1.70002
-1.55361
-1.37717
-1.19042
-1.84299
-1.84976
-1.8577
-1.86469
-1.86497
-1.84795
-1.799
-1.70416
-1.55917
-1.37714
-1.18254
-0.993277
-1.82709
-1.83352
-1.83985
-1.84469
-1.84349
-1.82725
-1.78248
-1.69451
-1.55581
-1.37554
-1.17854
-0.988779
-0.814563
-1.81189
-1.81744
-1.82161
-1.82342
-1.81918
-1.80132
-1.75799
-1.67535
-1.54435
-1.37026
-1.17522
-0.98552
-0.814679
-0.662065
-1.79879
-1.80322
-1.8053
-1.80433
-1.79722
-1.77746
-1.73462
-1.65595
-1.53192
-1.36477
-1.17311
-0.983232
-0.81252
-0.663795
-0.532808
-1.78861
-1.79188
-1.79229
-1.78947
-1.78094
-1.76106
-1.72035
-1.64648
-1.52885
-1.36681
-1.17591
-0.982611
-0.808171
-0.659099
-0.531941
-0.421243
-1.78723
-1.79659
-1.78932
-1.80926
-1.80048
-1.78869
-1.82456
-1.81497
-1.80235
-1.7855
-1.8412
-1.83193
-1.81987
-1.80225
-1.77827
-1.85735
-1.84976
-1.84009
-1.82396
-1.79822
-1.76267
-1.87086
-1.86621
-1.86077
-1.84888
-1.82487
-1.78506
-1.73032
-1.87967
-1.87878
-1.87883
-1.87361
-1.85531
-1.8164
-1.75307
-1.66852
-1.88237
-1.88533
-1.89101
-1.89364
-1.88419
-1.8517
-1.78699
-1.68805
-1.56308
-1.87847
-1.88468
-1.89487
-1.90455
-1.90486
-1.88266
-1.82378
-1.71972
-1.57514
-1.40666
-1.86853
-1.87688
-1.88955
-1.90364
-1.91165
-1.90018
-1.8518
-1.75157
-1.59797
-1.409
-1.20956
-1.85405
-1.86322
-1.87605
-1.89103
-1.9025
-1.89848
-1.86079
-1.77011
-1.61781
-1.41874
-1.20508
-1.00086
-1.83712
-1.84587
-1.85692
-1.86961
-1.87987
-1.87794
-1.84709
-1.76675
-1.623
-1.42449
-1.20438
-0.996345
-0.810701
-1.81989
-1.82737
-1.83544
-1.84388
-1.84961
-1.84488
-1.81558
-1.74254
-1.60984
-1.41997
-1.20177
-0.992649
-0.810657
-0.652261
-1.80418
-1.80993
-1.81468
-1.81832
-1.81837
-1.80845
-1.77693
-1.70734
-1.58437
-1.40651
-1.19606
-0.989003
-0.808452
-0.655727
-0.523041
-1.79122
-1.79512
-1.79682
-1.79626
-1.79136
-1.77669
-1.74238
-1.67436
-1.55873
-1.39186
-1.19024
-0.986025
-0.805074
-0.653701
-0.526173
-0.415564
-1.7817
-1.78377
-1.78297
-1.77936
-1.77131
-1.7543
-1.71967
-1.65464
-1.54563
-1.38679
-1.19013
-0.985005
-0.799962
-0.646266
-0.520421
-0.414835
-0.323894
-1.78149
-1.7896
-1.78182
-1.80147
-1.79225
-1.77916
-1.81655
-1.80656
-1.79276
-1.77395
-1.83377
-1.82408
-1.81091
-1.79165
-1.76541
-1.85146
-1.84343
-1.83274
-1.81522
-1.78787
-1.75035
-1.86747
-1.86248
-1.85632
-1.84344
-1.81836
-1.77754
-1.72172
-1.87952
-1.87859
-1.87859
-1.87328
-1.85485
-1.81579
-1.75232
-1.6676
-1.88574
-1.88919
-1.89593
-1.90009
-1.8924
-1.86142
-1.79745
-1.69828
-1.5725
-1.88513
-1.89249
-1.90513
-1.91863
-1.92378
-1.90631
-1.85039
-1.74601
-1.5978
-1.42434
-1.87773
-1.8879
-1.90438
-1.92473
-1.94133
-1.93929
-1.89822
-1.79944
-1.63938
-1.43858
-1.22717
-1.86462
-1.87611
-1.89377
-1.91684
-1.94012
-1.95038
-1.92578
-1.84101
-1.68174
-1.46418
-1.22935
-1.00894
-1.84774
-1.859
-1.87523
-1.89673
-1.92035
-1.93589
-1.92312
-1.85432
-1.70635
-1.4858
-1.23644
-1.00561
-0.80643
-1.82936
-1.83916
-1.85202
-1.86873
-1.8873
-1.90028
-1.89107
-1.83356
-1.70116
-1.49048
-1.23934
-1.00269
-0.805666
-0.640008
-1.81164
-1.81923
-1.82778
-1.83809
-1.84871
-1.85386
-1.84061
-1.78708
-1.66821
-1.47462
-1.23366
-0.998476
-0.802466
-0.643935
-0.509037
-1.79621
-1.80131
-1.80551
-1.80939
-1.81169
-1.8076
-1.78675
-1.73179
-1.62175
-1.44569
-1.22126
-0.993443
-0.798797
-0.64289
-0.514859
-0.404534
-1.78412
-1.78674
-1.78709
-1.78557
-1.781
-1.76925
-1.74165
-1.68407
-1.57939
-1.41718
-1.20853
-0.989226
-0.795279
-0.638725
-0.513078
-0.408414
-0.318232
-1.77587
-1.77617
-1.77334
-1.76777
-1.75854
-1.74225
-1.71151
-1.65409
-1.55464
-1.40231
-1.20346
-0.987599
-0.790469
-0.629985
-0.503773
-0.402344
-0.317646
-0.245096
-1.77734
-1.7837
-1.77549
-1.79413
-1.7845
-1.77021
-1.80822
-1.79782
-1.78283
-1.76204
-1.82515
-1.81498
-1.80056
-1.77946
-1.7507
-1.84348
-1.83487
-1.82284
-1.80351
-1.77406
-1.73401
-1.86121
-1.85561
-1.84813
-1.8335
-1.80657
-1.764
-1.70637
-1.87598
-1.87461
-1.87366
-1.86705
-1.84719
-1.8069
-1.74258
-1.65726
-1.8856
-1.88902
-1.8957
-1.89976
-1.89192
-1.86073
-1.79656
-1.69723
-1.57132
-1.88857
-1.89652
-1.91041
-1.92589
-1.93355
-1.91857
-1.86422
-1.75966
-1.60946
-1.43327
-1.88438
-1.89586
-1.9151
-1.94006
-1.96329
-1.96878
-1.93374
-1.83642
-1.67144
-1.46132
-1.24048
-1.87364
-1.88711
-1.90894
-1.93916
-1.97341
-1.99762
-1.98636
-1.90848
-1.74336
-1.50802
-1.25241
-1.01645
-1.85789
-1.8716
-1.89291
-1.92328
-1.96094
-1.99585
-2.00427
-1.95088
-1.80068
-1.55601
-1.27281
-1.01591
-0.802088
-1.83938
-1.8517
-1.8698
-1.89577
-1.92924
-1.96392
-1.98098
-1.94636
-1.81858
-1.58319
-1.2887
-1.01577
-0.800101
-0.626181
-1.82046
-1.83028
-1.84347
-1.86209
-1.88628
-1.91167
-1.9247
-1.89688
-1.78848
-1.57531
-1.28967
-1.01264
-0.794845
-0.628976
-0.491656
-1.8031
-1.80991
-1.81764
-1.82792
-1.84082
-1.85287
-1.85368
-1.82171
-1.72428
-1.53612
-1.27404
-1.00618
-0.789275
-0.626773
-0.498459
-0.388803
-1.78873
-1.79242
-1.795
-1.79757
-1.79987
-1.79879
-1.78592
-1.74486
-1.65114
-1.48351
-1.24924
-0.998635
-0.785549
-0.623384
-0.498497
-0.395871
-0.30725
-1.77813
-1.77889
-1.77706
-1.77334
-1.76726
-1.75598
-1.73242
-1.6835
-1.59063
-1.43724
-1.22611
-0.992707
-0.783613
-0.619353
-0.493922
-0.394391
-0.311328
-0.239879
-1.77167
-1.76976
-1.76433
-1.75585
-1.74394
-1.72625
-1.69685
-1.64477
-1.55435
-1.41094
-1.21416
-0.99029
-0.780596
-0.611354
-0.482923
-0.384437
-0.305501
-0.239425
-0.182922
-1.77516
-1.77944
-1.77091
-1.78792
-1.77796
-1.76269
-1.80037
-1.7896
-1.77352
-1.75092
-1.81617
-1.80554
-1.78987
-1.76691
-1.73563
-1.8342
-1.82496
-1.81143
-1.79008
-1.7583
-1.71547
-1.85269
-1.8463
-1.8371
-1.8202
-1.79088
-1.7461
-1.6862
-1.8694
-1.86722
-1.86458
-1.85565
-1.83329
-1.7909
-1.72525
-1.63903
-1.88195
-1.88483
-1.89035
-1.89269
-1.88282
-1.84977
-1.78448
-1.6851
-1.55977
-1.88843
-1.89636
-1.91019
-1.92557
-1.93306
-1.9178
-1.86314
-1.75833
-1.60804
-1.43183
-1.88782
-1.89997
-1.92062
-1.94794
-1.97457
-1.98401
-1.95225
-1.85581
-1.68819
-1.47298
-1.247
-1.88016
-1.89507
-1.91987
-1.95521
-1.9978
-2.03333
-2.0333
-1.9617
-1.79239
-1.54286
-1.27036
-1.022
-1.86655
-1.88235
-1.90804
-1.94616
-1.99662
-2.05067
-2.08101
-2.04511
-1.89504
-1.62707
-1.30922
-1.02593
-0.798014
-1.84897
-1.86374
-1.88699
-1.92224
-1.97121
-2.02997
-2.07814
-2.07373
-1.95696
-1.69536
-1.34849
-1.03144
-0.794468
-0.611951
-1.82979
-1.84203
-1.8603
-1.8882
-1.92808
-1.97808
-2.02572
-2.03567
-1.94878
-1.71486
-1.36827
-1.03262
-0.786158
-0.611789
-0.472186
-1.81126
-1.8201
-1.83215
-1.85038
-1.87686
-1.91048
-1.94224
-1.94703
-1.87516
-1.67546
-1.35714
-1.02653
-0.776676
-0.605752
-0.477815
-0.36941
-1.7951
-1.80028
-1.80603
-1.81446
-1.82685
-1.84196
-1.85267
-1.84037
-1.76946
-1.59787
-1.32117
-1.0155
-0.770186
-0.599872
-0.476972
-0.377819
-0.291653
-1.78242
-1.78408
-1.78419
-1.78406
-1.78423
-1.78307
-1.77444
-1.74421
-1.66743
-1.51437
-1.27721
-1.00436
-0.768932
-0.597272
-0.474067
-0.378698
-0.299025
-0.229787
-1.7738
-1.77227
-1.76768
-1.76076
-1.7516
-1.73843
-1.71583
-1.67256
-1.59039
-1.44862
-1.24061
-0.996369
-0.77111
-0.596639
-0.469532
-0.374092
-0.297851
-0.233678
-0.178386
-1.76947
-1.76514
-1.75676
-1.74471
-1.72898
-1.70804
-1.67742
-1.62786
-1.54462
-1.41105
-1.22048
-0.992893
-0.771661
-0.592077
-0.459373
-0.362234
-0.288196
-0.228439
-0.178043
-0.134908
-1.7772
-1.76852
-1.78344
-1.77324
-1.75726
-1.79374
-1.78268
-1.76569
-1.74159
-1.80772
-1.79667
-1.77985
-1.75521
-1.72164
-1.82454
-1.81467
-1.79965
-1.77628
-1.7422
-1.69664
-1.84279
-1.83551
-1.82439
-1.80498
-1.77305
-1.72586
-1.66356
-1.86044
-1.8572
-1.85233
-1.84038
-1.81485
-1.76984
-1.70259
-1.61538
-1.87516
-1.87703
-1.88042
-1.87968
-1.86624
-1.83005
-1.76304
-1.66381
-1.53973
-1.88474
-1.89203
-1.90451
-1.91773
-1.92237
-1.90416
-1.84738
-1.74234
-1.59387
-1.42033
-1.8877
-1.89982
-1.92042
-1.94764
-1.97408
-1.98317
-1.95093
-1.85403
-1.68623
-1.47115
-1.24537
-1.88353
-1.89917
-1.9255
-1.96345
-2.0102
-2.05147
-2.05752
-1.98969
-1.81843
-1.56115
-1.27938
-1.02427
-1.87283
-1.89013
-1.91895
-1.96255
-2.02199
-2.09162
-2.14117
-2.12117
-1.97268
-1.68588
-1.33895
-1.03364
-0.794493
-1.85715
-1.87402
-1.90173
-1.94506
-2.00791
-2.08994
-2.17141
-2.20079
-2.10151
-1.81534
-1.41273
-1.04788
-0.789279
-0.598779
-1.83872
-1.8533
-1.87658
-1.9138
-1.9699
-2.04683
-2.13584
-2.19541
-2.14575
-1.89444
-1.47155
-1.05883
-0.777319
-0.593791
-0.452371
-1.81988
-1.83093
-1.8477
-1.8748
-1.91694
-1.97663
-2.04866
-2.10788
-2.08327
-1.87924
-1.48298
-1.05787
-0.76178
-0.580804
-0.454295
-0.347859
-1.80262
-1.8096
-1.81921
-1.83489
-1.86013
-1.89679
-1.94091
-1.97402
-1.94713
-1.78069
-1.44122
-1.04421
-0.748769
-0.568037
-0.449217
-0.355317
-0.272553
-1.78835
-1.79127
-1.7941
-1.79913
-1.80841
-1.8225
-1.83759
-1.83953
-1.7949
-1.65004
-1.37081
-1.0259
-0.744611
-0.562255
-0.444069
-0.355784
-0.281434
-0.215522
-1.77787
-1.77706
-1.77408
-1.77022
-1.76646
-1.76235
-1.75384
-1.72976
-1.66727
-1.53238
-1.30125
-1.01049
-0.750119
-0.565327
-0.442093
-0.353443
-0.282843
-0.222526
-0.169637
-1.77154
-1.7675
-1.75979
-1.74904
-1.73559
-1.71851
-1.69394
-1.65276
-1.57848
-1.44895
-1.24949
-1.00006
-0.759518
-0.57251
-0.441428
-0.348607
-0.27851
-0.221626
-0.173105
-0.131136
-1.76272
-1.7513
-1.73539
-1.71507
-1.68949
-1.65543
-1.60551
-1.52677
-1.40237
-1.22107
-0.995011
-0.765153
-0.574479
-0.435318
-0.337435
-0.266926
-0.212878
-0.168622
-0.13088
-0.0984898
-1.78109
-1.77077
-1.75443
-1.78895
-1.77768
-1.76005
-1.7349
-1.80058
-1.7892
-1.77143
-1.74541
-1.70999
-1.81545
-1.80502
-1.78863
-1.76345
-1.72729
-1.67931
-1.83248
-1.82432
-1.81129
-1.7894
-1.75491
-1.7054
-1.64082
-1.85001
-1.84557
-1.83822
-1.82295
-1.79398
-1.74621
-1.67732
-1.58919
-1.86589
-1.86641
-1.867
-1.86225
-1.8443
-1.80425
-1.73526
-1.63643
-1.51417
-1.87785
-1.88395
-1.89391
-1.90318
-1.90277
-1.87953
-1.81946
-1.71449
-1.56951
-1.40089
-1.88403
-1.89544
-1.91454
-1.93923
-1.96192
-1.96647
-1.93013
-1.83159
-1.66612
-1.45634
-1.236
-1.88342
-1.89904
-1.92532
-1.96318
-2.00975
-2.05063
-2.05598
-1.98728
-1.81548
-1.55839
-1.27724
-1.02262
-1.87608
-1.89416
-1.92458
-1.97095
-2.03494
-2.11197
-2.17116
-2.16061
-2.01419
-1.71759
-1.35454
-1.03702
-0.791799
-1.86308
-1.88149
-1.9124
-1.96142
-2.03379
-2.13156
-2.2436
-2.30461
-2.22675
-1.91998
-1.46853
-1.06142
-0.784869
-0.588246
-1.84633
-1.86295
-1.89058
-1.93594
-2.00648
-2.10883
-2.241
-2.35637
-2.36045
-2.10094
-1.5932
-1.08879
-0.769413
-0.576865
-0.434302
-1.82812
-1.84132
-1.86274
-1.89875
-1.95712
-2.04508
-2.16414
-2.29477
-2.34883
-2.16066
-1.66551
-1.10341
-0.746384
-0.55379
-0.429895
-0.326118
-1.81058
-1.81949
-1.8333
-1.85706
-1.89706
-1.95969
-2.04683
-2.14584
-2.20061
-2.06339
-1.63881
-1.09252
-0.721918
-0.528549
-0.416674
-0.329979
-0.251498
-1.79536
-1.79978
-1.80592
-1.8173
-1.83811
-1.87234
-1.9208
-1.97275
-1.98767
-1.87373
-1.53611
-1.06409
-0.708291
-0.512582
-0.404162
-0.32667
-0.2597
-0.198166
-1.78349
-1.78369
-1.78297
-1.78346
-1.78756
-1.79701
-1.81061
-1.81912
-1.79476
-1.68137
-1.41568
-1.0367
-0.713456
-0.513651
-0.399478
-0.322738
-0.261137
-0.206681
-0.157327
-1.77549
-1.77201
-1.7656
-1.75734
-1.74838
-1.73901
-1.72687
-1.70372
-1.65036
-1.5332
-1.31673
-1.017
-0.73187
-0.529751
-0.403972
-0.321057
-0.259335
-0.208332
-0.163558
-0.123879
-1.76501
-1.75412
-1.73923
-1.72074
-1.6983
-1.66932
-1.62678
-1.55669
-1.43782
-1.25057
-1.00334
-0.751019
-0.549924
-0.412052
-0.319712
-0.254511
-0.204464
-0.162885
-0.126818
-0.0954605
-1.74845
-1.72869
-1.70346
-1.67234
-1.63319
-1.5804
-1.50323
-1.38614
-1.2155
-0.995994
-0.762246
-0.561178
-0.41354
-0.312362
-0.243402
-0.193898
-0.155349
-0.123126
-0.0952713
-0.0712796
-1.78644
-1.77507
-1.75711
-1.73141
-1.79543
-1.78381
-1.76538
-1.73839
-1.70166
-1.80778
-1.79689
-1.7794
-1.75273
-1.7149
-1.66497
-1.82278
-1.81382
-1.79906
-1.77495
-1.73818
-1.68664
-1.62011
-1.83916
-1.83352
-1.82369
-1.80517
-1.77287
-1.72248
-1.65211
-1.56326
-1.8551
-1.85408
-1.85152
-1.84237
-1.81959
-1.77552
-1.7046
-1.6064
-1.48634
-1.86844
-1.87293
-1.87951
-1.88361
-1.87683
-1.84747
-1.78366
-1.67915
-1.53882
-1.37662
-1.87716
-1.88724
-1.90352
-1.92346
-1.93932
-1.936
-1.89319
-1.79279
-1.63205
-1.43161
-1.22081
-1.87983
-1.89468
-1.91936
-1.95446
-1.99654
-2.03102
-2.02915
-1.95529
-1.78461
-1.53553
-1.26458
-1.01747
-1.87597
-1.89403
-1.92442
-1.97071
-2.03454
-2.11119
-2.16953
-2.15748
-2.00961
-1.71289
-1.35104
-1.03483
-0.790302
-1.86615
-1.88535
-1.91791
-1.96981
-2.04703
-2.15293
-2.27854
-2.35666
-2.29076
-1.97735
-1.49931
-1.06811
-0.781417
-0.581821
-1.85186
-1.86996
-1.90075
-1.9519
-2.03229
-2.15135
-2.31171
-2.49213
-2.54967
-2.30025
-1.70805
-1.1149
-0.762937
-0.563154
-0.420202
-1.83514
-1.85022
-1.87569
-1.91958
-1.99246
-2.10681
-2.27386
-2.48755
-2.64243
-2.51115
-1.90635
-1.16073
-0.733192
-0.527586
-0.407205
-0.3065
-1.81817
-1.82898
-1.84692
-1.87879
-1.93407
-2.02493
-2.16167
-2.34465
-2.5285
-2.48184
-1.95882
-1.17199
-0.692902
-0.483795
-0.381814
-0.304044
-0.23045
-1.80275
-1.8088
-1.81854
-1.83695
-1.87093
-1.92923
-2.02048
-2.1437
-2.26292
-2.24298
-1.8302
-1.13324
-0.65845
-0.447438
-0.35555
-0.293136
-0.235492
-0.179184
-1.79012
-1.79153
-1.79355
-1.79938
-1.81335
-1.84051
-1.8848
-1.94326
-1.98724
-1.93013
-1.62731
-1.08228
-0.653924
-0.436186
-0.340594
-0.282764
-0.233908
-0.187272
-0.142442
-1.78095
-1.77823
-1.77365
-1.76894
-1.76646
-1.76852
-1.77565
-1.78257
-1.76863
-1.683
-1.44612
-1.0481
-0.681194
-0.456071
-0.343937
-0.279221
-0.231197
-0.189273
-0.150074
-0.113713
-1.76936
-1.7595
-1.7466
-1.73169
-1.71549
-1.69684
-1.66996
-1.61967
-1.51607
-1.31905
-1.02364
-0.718266
-0.494876
-0.362557
-0.283383
-0.229685
-0.187929
-0.151743
-0.118991
-0.0896465
-1.75116
-1.73219
-1.70839
-1.67971
-1.64458
-1.59784
-1.52826
-1.41705
-1.24314
-1.00508
-0.747387
-0.532555
-0.384834
-0.290009
-0.227668
-0.183382
-0.148426
-0.118492
-0.0920409
-0.0689132
-1.72519
-1.69516
-1.65813
-1.6128
-1.55523
-1.47698
-1.36471
-1.2045
-0.995277
-0.763332
-0.554416
-0.397055
-0.289833
-0.219849
-0.173092
-0.139268
-0.11225
-0.0890897
-0.0687728
-0.0512034
-1.79274
-1.78099
-1.76222
-1.73472
-1.69733
-1.80224
-1.79103
-1.77277
-1.74506
-1.70605
-1.65478
-1.81459
-1.805
-1.78884
-1.76293
-1.72434
-1.67117
-1.60313
-1.82893
-1.82221
-1.81015
-1.78874
-1.75352
-1.70087
-1.62928
-1.53993
-1.84385
-1.84128
-1.8356
-1.82214
-1.79473
-1.74693
-1.67435
-1.57696
-1.45923
-1.85747
-1.8601
-1.86287
-1.8613
-1.84773
-1.81207
-1.74466
-1.64104
-1.50591
-1.35076
-1.86778
-1.87602
-1.88845
-1.9021
-1.9093
-1.89647
-1.84629
-1.7444
-1.59005
-1.40133
-1.20245
-1.87311
-1.8865
-1.90815
-1.93802
-1.97157
-1.99437
-1.98073
-1.90001
-1.73315
-1.49828
-1.24449
-1.01009
-1.87252
-1.88977
-1.91849
-1.96187
-2.02087
-2.08948
-2.13683
-2.11306
-1.961
-1.67386
-1.32985
-1.02775
-0.790399
-1.86605
-1.88524
-1.91776
-1.9696
-2.04667
-2.15226
-2.27702
-2.35306
-2.28386
-1.96879
-1.49265
-1.06448
-0.779434
-0.58059
-1.85472
-1.87359
-1.90603
-1.96013
-2.04552
-2.17329
-2.34945
-2.55159
-2.63863
-2.39964
-1.77475
-1.13085
-0.757474
-0.554674
-0.412051
-1.84024
-1.85668
-1.88514
-1.93477
-2.01765
-2.14919
-2.34718
-2.61682
-2.87611
-2.82775
-2.15792
-1.20837
-0.723483
-0.505858
-0.389182
-0.291408
-1.82465
-1.83709
-1.85865
-1.89771
-1.96686
-2.0842
-2.27075
-2.5441
-2.86722
-2.9917
-2.44767
-1.28599
-0.667773
-0.438701
-0.348298
-0.280302
-0.211655
-1.80981
-1.81743
-1.83071
-1.85616
-1.90372
-1.98804
-2.12891
-2.34103
-2.61471
-2.77109
-2.36537
-1.26459
-0.597046
-0.369277
-0.301152
-0.257958
-0.211016
-0.160378
-1.79712
-1.79982
-1.80482
-1.81653
-1.84169
-1.88979
-1.97285
-2.10185
-2.26113
-2.34004
-2.02649
-1.16119
-0.559313
-0.327419
-0.265359
-0.235367
-0.203025
-0.165873
-0.126283
-1.78738
-1.78559
-1.78321
-1.78283
-1.78844
-1.80527
-1.83871
-1.89062
-1.94542
-1.93273
-1.6924
-1.09482
-0.59063
-0.338744
-0.257177
-0.223196
-0.19521
-0.165647
-0.133685
-0.101488
-1.77538
-1.76696
-1.75686
-1.7471
-1.74007
-1.73723
-1.73594
-1.7218
-1.65358
-1.45112
-1.06367
-0.656745
-0.396174
-0.280423
-0.226938
-0.192649
-0.163953
-0.135898
-0.107992
-0.0815309
-1.75632
-1.7389
-1.71786
-1.69401
-1.667
-1.63295
-1.58035
-1.48446
-1.30671
-1.02748
-0.712593
-0.467144
-0.322622
-0.243545
-0.195865
-0.162554
-0.134912
-0.109533
-0.0858328
-0.0643803
-1.72852
-1.69956
-1.66435
-1.62204
-1.56912
-1.49698
-1.39004
-1.22843
-1.00429
-0.749266
-0.523716
-0.363832
-0.262878
-0.200458
-0.160078
-0.130819
-0.106779
-0.0854647
-0.0662709
-0.0493953
-1.69084
-1.648
-1.59602
-1.53237
-1.45094
-1.34097
-1.18975
-0.992718
-0.76783
-0.555306
-0.388427
-0.272799
-0.198854
-0.152443
-0.121776
-0.0991495
-0.080451
-0.0639676
-0.0492906
-0.0365464
-1.79935
-1.78797
-1.7693
-1.74107
-1.70145
-1.64949
-1.80869
-1.79864
-1.7815
-1.75434
-1.71448
-1.66021
-1.59114
-1.82031
-1.8127
-1.79885
-1.7751
-1.73758
-1.68317
-1.61067
-1.52101
-1.83325
-1.82928
-1.82078
-1.80351
-1.77208
-1.72112
-1.64725
-1.55072
-1.43523
-1.84603
-1.84678
-1.84575
-1.83864
-1.81862
-1.77717
-1.70671
-1.6043
-1.47433
-1.32608
-1.85684
-1.86295
-1.87099
-1.87768
-1.87569
-1.85316
-1.79592
-1.69326
-1.5461
-1.36977
-1.18346
-1.86394
-1.87532
-1.89278
-1.91547
-1.93799
-1.94681
-1.91986
-1.83236
-1.67139
-1.4541
-1.22086
-1.00193
-1.86606
-1.88178
-1.90733
-1.94516
-1.995
-2.04771
-2.07524
-2.03478
-1.88055
-1.61213
-1.29749
-1.01794
-0.792297
-1.86279
-1.88115
-1.91197
-1.96082
-2.03281
-2.12972
-2.23955
-2.29539
-2.20971
-1.89914
-1.45208
-1.05201
-0.77956
-0.584892
-1.85462
-1.87348
-1.90589
-1.95993
-2.04522
-2.17272
-2.34819
-2.54821
-2.6295
-2.38374
-1.76038
-1.12378
-0.75426
-0.55306
-0.411157
-1.84288
-1.86004
-1.89006
-1.94262
-2.03058
-2.17112
-2.38691
-2.69076
-2.99048
-3.01182
-2.31421
-1.25524
-0.713221
-0.492003
-0.378648
-0.282935
-1.82935
-1.84298
-1.86721
-1.91161
-1.99097
-2.12541
-2.34367
-2.68762
-3.16893
-2.96925
-3.19724
-3.32864
-3.59558
-2.55078
-3.31997
-3.65273
-2.80831
-3.12445
-3.4652
-1.44217
-2.47896
-2.79795
-1.59496
-1.78167
-1.96691
-0.653253
-1.075
-1.17682
-0.400565
-0.320871
-0.261795
-0.19738
-1.81583
-1.82481
-1.84118
-1.87288
-1.93279
-2.04184
-2.23238
-2.53861
-2.97801
-2.94599
-3.31885
-3.16714
-3.5817
-2.73393
-3.26414
-3.21212
-3.8498
-3.82663
-3.27062
-3.80234
-1.58511
-2.6634
-3.32997
-3.16901
-1.91496
-1.93532
-2.36627
-0.542245
-1.08461
-1.28863
-1.26594
-0.288794
-0.24621
-0.224964
-0.188915
-0.143748
-1.80379
-1.80775
-1.81566
-1.83324
-1.86985
-1.94035
-2.06773
-2.28508
-2.60921
-2.95081
-2.43036
-3.58976
-2.99775
-2.65882
-3.30124
-1.48336
-3.22533
-2.26755
-2.91677
-1.85172
-1.71145
-2.13227
-0.417124
-1.2391
-0.962826
-1.13146
-0.188849
-0.176188
-0.184065
-0.171185
-0.14449
-0.110405
-1.79417
-1.79337
-1.79337
-1.79774
-1.81244
-1.84651
-1.91263
-2.02634
-2.19556
-2.34216
-2.17544
-1.28237
-2.53019
-1.55316
-1.40659
-1.68834
-0.423457
-1.03865
-0.893699
-0.996316
-0.162166
-0.13961
-0.154467
-0.153443
-0.139232
-0.115788
-0.0883056
-1.78249
-1.7758
-1.76911
-1.76572
-1.77042
-1.78881
-1.82482
-1.87114
-1.87931
-1.70295
-1.13904
-0.541914
-0.960616
-0.231382
-0.155439
-0.148945
-0.144227
-0.13378
-0.116467
-0.0947175
-0.0718196
-1.76347
-1.74823
-1.73113
-1.71432
-1.69958
-1.68584
-1.66322
-1.60037
-1.42726
-1.0728
-0.645748
-0.346628
-0.215589
-0.169639
-0.147586
-0.131967
-0.115525
-0.096879
-0.0771486
-0.0580727
-1.73489
-1.70801
-1.67637
-1.64012
-1.59683
-1.53806
-1.44435
-1.28258
-1.0262
-0.716685
-0.45278
-0.290737
-0.206126
-0.16085
-0.134092
-0.114227
-0.0961584
-0.0784813
-0.0614737
-0.0459378
-1.69497
-1.65343
-1.60359
-1.5433
-1.46639
-1.36068
-1.20905
-1.00083
-0.755635
-0.525171
-0.352765
-0.242078
-0.175911
-0.136743
-0.111551
-0.0926178
-0.0762552
-0.061201
-0.0473933
-0.0351898
-1.64274
-1.58413
-1.51373
-1.42756
-1.31765
-1.17336
-0.988654
-0.774552
-0.563378
-0.388996
-0.263739
-0.183036
-0.134175
-0.104551
-0.0849914
-0.0700953
-0.0572722
-0.0456295
-0.0351108
-0.025941
-1.80559
-1.79532
-1.77768
-1.74988
-1.70937
-1.65453
-1.58495
-1.81409
-1.80586
-1.79075
-1.76539
-1.72627
-1.67068
-1.59758
-1.50777
-1.82432
-1.81919
-1.80841
-1.78811
-1.75351
-1.70014
-1.62536
-1.52962
-1.41602
-1.83526
-1.83427
-1.82981
-1.81782
-1.79223
-1.74596
-1.67315
-1.57208
-1.44674
-1.30462
-1.84544
-1.84937
-1.853
-1.85288
-1.84221
-1.81087
-1.74762
-1.64496
-1.50496
-1.34027
-1.16581
-1.85324
-1.8623
-1.87494
-1.88955
-1.90033
-1.89503
-1.85536
-1.76242
-1.60866
-1.40966
-1.19714
-0.994127
-1.85725
-1.87086
-1.89201
-1.92208
-1.9591
-1.99267
-1.99841
-1.94091
-1.78704
-1.5418
-1.26116
-1.00749
-0.795853
-1.85668
-1.87349
-1.90107
-1.94417
-2.00652
-2.08742
-2.16613
-2.18943
-2.08162
-1.7914
-1.39322
-1.03589
-0.782131
-0.594135
-1.85157
-1.86963
-1.90035
-1.95135
-2.03143
-2.1498
-2.30833
-2.48342
-2.5277
-2.26362
-1.67493
-1.09757
-0.75464
-0.558851
-0.417778
-1.84279
-1.85993
-1.88992
-1.94244
-2.0303
-2.17063
-2.38588
-2.6882
-2.98187
-2.98462
-2.27911
-1.23946
-0.707244
-0.489426
-0.377517
-0.2824
-1.83178
-1.84604
-1.87167
-1.91884
-2.00333
-2.14676
-2.38346
-2.77082
-3.32885
-3.30808
-3.3623
-3.73054
-3.79691
-2.94246
-2.99993
-3.65242
-3.72748
-3.8232
-3.9016
-1.65988
-2.96734
-3.03739
-1.68428
-2.07335
-2.11174
-0.628651
-1.20274
-1.21116
-0.3745
-0.30463
-0.251305
-0.189545
-1.82019
-1.83017
-1.84882
-1.88517
-1.95439
-2.0822
-2.30213
-2.68085
-3.32546
-3.63881
-3.88295
-3.88085
-4.14147
-4.17852
-3.81701
-4.18076
-3.58419
-2.28039
-2.51542
-1.38918
-0.794964
-0.224457
-0.770595
-0.412756
-0.344352
-0.199089
-0.198665
-0.171966
-0.131262
-1.80947
-1.81453
-1.82497
-1.84773
-1.89473
-1.98641
-2.15877
-2.47347
-2.96614
-3.27715
-3.71646
-3.33208
-3.7809
-4.14392
-3.71037
-4.44197
-4.38629
-4.05967
-4.24569
-2.38262
-2.99295
-4.01278
-2.8714
-1.50644
-0.662377
-0.0416549
-0.6107
-0.179081
-0.00960354
-0.708196
-0.191823
-1.5185
-0.0810798
-0.134516
-0.141883
-0.125426
-0.0964898
-1.80064
-1.8008
-1.80313
-1.8122
-1.83614
-1.88843
-1.99125
-2.18145
-2.51519
-2.94467
-2.78679
-3.48071
-2.86244
-3.57896
-3.75748
-3.84214
-4.03894
-3.25613
-2.79357
-3.76972
-1.96276
-2.43711
-1.19799
-0.545287
0.0834736
-0.479048
0.148634
-0.376704
-0.0879887
0.221291
-1.39533
0.00839619
-0.0772801
-0.109305
-0.112443
-0.0980915
-0.0754462
-1.79
-1.78518
-1.78221
-1.78592
-1.80415
-1.84841
-1.9342
-2.07499
-2.24745
-2.1965
-1.46673
-2.68382
-2.79083
-1.78373
-1.51225
-1.85802
-2.10349
-1.06168
-0.618625
0.0343359
-0.3731
0.167951
-0.450028
-0.262945
0.0140051
-1.11833
0.0243314
-0.0495529
-0.0865278
-0.0994446
-0.0950229
-0.0803388
-0.0614062
-1.77194
-1.75933
-1.74709
-1.73918
-1.74066
-1.75574
-1.7812
-1.78442
-1.65092
-1.16207
-0.513668
-0.980892
-1.01451
-0.143148
-0.561071
-0.16703
-0.0445221
-0.064156
-0.0829559
-0.092818
-0.0914774
-0.0815032
-0.0667277
-0.0505556
-1.74374
-1.7198
-1.69334
-1.66612
-1.63796
-1.60204
-1.53513
-1.38203
-1.06916
-0.655467
-0.319334