/*--------------------------------*- C++ -*----------------------------------*\
  =========                 |
  \\      /  F ield         | OpenFOAM: The Open Source CFD Toolbox
   \\    /   O peration     | Website:  https://openfoam.org
    \\  /    A nd           | Version:  9
     \\/     M anipulation  |
\*---------------------------------------------------------------------------*/
FoamFile
{
    format      ascii;
    class       volScalarField;
    location    "0";
    object      Phi;
}
// * * * * * * * * * * * * * * * * * * * * * * * * * * * * * * * * * * * * * //

dimensions      [0 2 -1 0 0 0 0];

internalField   nonuniform List<scalar> 
487909
(
61.695
61.695
61.695
60.1326
61.695
61.695
60.1326
61.695
60.1326
58.5703
61.6949
61.6949
60.1325
61.6949
60.1326
58.5702
61.6949
60.1325
58.5702
57.008
61.6948
61.6949
60.1325
61.6949
60.1325
58.5702
61.6949
60.1325
58.5702
57.008
61.6948
60.1325
58.5702
57.008
55.4459
61.6947
61.6948
60.1324
61.6948
60.1324
58.5701
61.6948
60.1324
58.5701
57.0079
61.6948
60.1324
58.5701
57.0079
55.4458
61.6947
60.1324
58.5701
57.0079
55.4458
53.8839
61.6947
61.6947
60.1323
61.6947
60.1323
58.57
61.6947
60.1324
58.57
57.0078
61.6947
60.1324
58.5701
57.0079
55.4457
61.6947
60.1323
58.57
57.0079
55.4458
53.8839
61.6947
60.1323
58.57
57.0078
55.4457
53.8839
52.3221
61.6946
61.6946
60.1322
61.6946
60.1323
58.5699
61.6947
60.1323
58.5699
57.0077
61.6947
60.1323
58.57
57.0078
55.4456
61.6947
60.1323
58.57
57.0078
55.4457
53.8837
61.6946
60.1323
58.5699
57.0078
55.4457
53.8838
52.3221
61.6946
60.1322
58.5699
57.0077
55.4456
53.8837
52.3221
50.7606
61.6946
61.6946
60.1321
61.6946
60.1322
58.5698
61.6946
60.1322
58.5698
57.0075
61.6946
60.1322
58.5699
57.0076
55.4455
61.6946
60.1322
58.5699
57.0077
55.4456
53.8836
61.6946
60.1322
58.5699
57.0077
55.4456
53.8837
52.3219
61.6946
60.1322
58.5698
57.0076
55.4456
53.8837
52.322
50.7605
61.6946
60.1321
58.5698
57.0075
55.4455
53.8836
52.3219
50.7605
49.1993
61.6945
61.6945
60.1321
61.6945
60.1321
58.5697
61.6945
60.1321
58.5697
57.0074
61.6945
60.1321
58.5697
57.0075
55.4453
61.6945
60.1321
58.5698
57.0075
55.4454
53.8834
61.6945
60.1321
58.5698
57.0075
55.4454
53.8835
52.3217
61.6945
60.1321
58.5698
57.0075
55.4454
53.8835
52.3218
50.7603
61.6945
60.1321
58.5697
57.0075
55.4454
53.8835
52.3218
50.7604
49.1992
61.6945
60.1321
58.5697
57.0074
55.4453
53.8834
52.3217
50.7603
49.1992
47.6383
61.6945
61.6945
60.1321
61.6944
60.132
58.5696
61.6944
60.132
58.5696
57.0073
61.6944
60.132
58.5696
57.0074
55.4451
61.6944
60.132
58.5696
57.0074
55.4452
53.8832
61.6944
60.132
58.5696
57.0074
55.4452
53.8833
52.3215
61.6944
60.132
58.5696
57.0074
55.4453
53.8833
52.3216
50.7601
61.6944
60.132
58.5696
57.0074
55.4452
53.8833
52.3217
50.7602
49.199
61.6945
60.132
58.5696
57.0074
55.4452
53.8833
52.3216
50.7602
49.1991
47.6382
61.6945
60.1321
58.5696
57.0073
55.4451
53.8832
52.3215
50.7601
49.199
47.6382
46.0775
61.6946
61.6945
60.132
61.6944
60.132
58.5696
61.6943
60.132
58.5696
57.0072
61.6943
60.1319
58.5695
57.0072
55.445
61.6943
60.1319
58.5695
57.0072
55.445
53.883
61.6943
60.1318
58.5695
57.0072
55.4451
53.8831
52.3212
61.6943
60.1319
58.5695
57.0072
55.445
53.8831
52.3214
50.7598
61.6943
60.1319
58.5695
57.0072
55.445
53.8831
52.3214
50.76
49.1988
61.6944
60.132
58.5695
57.0072
55.4451
53.8831
52.3214
50.76
49.1989
47.638
61.6945
60.132
58.5696
57.0072
55.445
53.8831
52.3214
50.76
49.1989
47.6381
46.0775
61.6946
60.1321
58.5696
57.0072
55.445
53.883
52.3212
50.7598
49.1988
47.638
46.0775
44.517
61.6946
61.6945
60.1321
61.6944
60.132
58.5696
61.6943
60.1319
58.5695
57.0072
61.6942
60.1318
58.5695
57.0072
55.4449
61.6942
60.1318
58.5694
57.0071
55.4449
53.8828
61.6941
60.1317
58.5693
57.007
55.4449
53.8828
52.321
61.6942
60.1317
58.5693
57.007
55.4448
53.8828
52.3211
50.7595
61.6942
60.1318
58.5693
57.007
55.4448
53.8828
52.3211
50.7596
49.1984
61.6943
60.1318
58.5694
57.007
55.4448
53.8828
52.3211
50.7597
49.1986
47.6378
61.6944
60.1319
58.5695
57.0071
55.4449
53.8828
52.3211
50.7597
49.1986
47.6379
46.0773
61.6945
60.132
58.5695
57.0072
55.4449
53.8828
52.3211
50.7596
49.1986
47.6379
46.0774
44.517
61.6946
60.1321
58.5696
57.0072
55.4449
53.8828
52.321
50.7595
49.1984
47.6378
46.0773
44.517
42.9566
61.6947
61.6946
60.1321
61.6944
60.132
58.5696
61.6943
60.1319
58.5695
57.0072
61.6942
60.1318
58.5694
57.0071
55.4448
61.6941
60.1317
58.5693
57.007
55.4448
53.8827
61.694
60.1316
58.5692
57.0069
55.4447
53.8826
52.3207
61.694
60.1316
58.5692
57.0068
55.4446
53.8826
52.3208
50.7592
61.6941
60.1316
58.5692
57.0068
55.4445
53.8825
52.3208
50.7593
49.1981
61.6942
60.1317
58.5692
57.0068
55.4445
53.8825
52.3207
50.7593
49.1983
47.6375
61.6943
60.1318
58.5693
57.0069
55.4446
53.8825
52.3207
50.7593
49.1983
47.6376
46.0771
61.6944
60.1319
58.5694
57.007
55.4447
53.8826
52.3208
50.7593
49.1983
47.6376
46.0772
44.5169
61.6946
60.132
58.5695
57.0071
55.4448
53.8826
52.3208
50.7593
49.1983
47.6376
46.0772
44.5169
42.9566
61.6947
60.1321
58.5696
57.0072
55.4448
53.8827
52.3207
50.7592
49.1981
47.6374
46.0771
44.5169
42.9566
41.3962
61.6947
61.6946
60.1322
61.6945
60.1321
58.5697
61.6943
60.1319
58.5696
57.0072
61.6942
60.1318
58.5694
57.0071
55.4448
61.6941
60.1317
58.5693
57.0069
55.4447
53.8826
61.694
60.1315
58.5691
57.0068
55.4446
53.8825
52.3206
61.6939
60.1315
58.569
57.0066
55.4444
53.8824
52.3205
50.7589
61.694
60.1315
58.569
57.0066
55.4443
53.8822
52.3204
50.759
49.1978
61.6941
60.1315
58.569
57.0066
55.4442
53.8821
52.3203
50.7589
49.1979
47.6371
61.6942
60.1317
58.5691
57.0066
55.4443
53.8821
52.3203
50.7588
49.1979
47.6372
46.0769
61.6943
60.1318
58.5693
57.0068
55.4444
53.8822
52.3203
50.7588
49.1978
47.6373
46.077
44.5168
61.6945
60.1319
58.5694
57.007
55.4446
53.8824
52.3204
50.7589
49.1979
47.6373
46.077
44.5168
42.9566
61.6946
60.1321
58.5696
57.0071
55.4447
53.8825
52.3205
50.759
49.1979
47.6372
46.077
44.5168
42.9566
41.3962
61.6947
60.1322
58.5697
57.0072
55.4448
53.8826
52.3206
50.7589
49.1978
47.6371
46.0768
44.5168
42.9566
41.3962
39.8357
61.6948
61.6947
60.1323
61.6946
60.1322
58.5698
61.6944
60.132
58.5696
57.0073
61.6942
60.1318
58.5695
57.0071
55.4449
61.6941
60.1317
58.5693
57.0069
55.4447
53.8826
61.6939
60.1315
58.5691
57.0067
55.4445
53.8824
52.3205
61.6939
60.1314
58.5689
57.0065
55.4443
53.8822
52.3203
50.7587
61.6939
60.1314
58.5688
57.0064
55.444
53.8819
52.3201
50.7586
49.1974
61.6939
60.1314
58.5688
57.0063
55.4439
53.8818
52.3199
50.7585
49.1974
47.6367
61.6941
60.1315
58.5689
57.0064
55.4439
53.8817
52.3198
50.7583
49.1973
47.6368
46.0766
61.6942
60.1317
58.5691
57.0065
55.444
53.8818
52.3198
50.7582
49.1973
47.6368
46.0767
44.5166
61.6944
60.1318
58.5693
57.0067
55.4443
53.8819
52.3199
50.7583
49.1973
47.6368
46.0767
44.5167
42.9566
61.6946
60.132
58.5695
57.0069
55.4445
53.8822
52.3201
50.7585
49.1973
47.6368
46.0767
44.5167
42.9566
41.3963
61.6947
60.1322
58.5696
57.0071
55.4447
53.8824
52.3203
50.7586
49.1974
47.6368
46.0766
44.5167
42.9566
41.3963
39.8357
61.6948
60.1323
58.5698
57.0073
55.4449
53.8826
52.3205
50.7587
49.1974
47.6367
46.0765
44.5166
42.9566
41.3963
39.8357
38.2749
61.6949
61.6948
60.1324
61.6946
60.1322
58.5699
61.6945
60.1321
58.5697
57.0074
61.6943
60.1319
58.5695
57.0072
55.445
61.6941
60.1317
58.5693
57.007
55.4448
53.8826
61.6939
60.1315
58.5691
57.0067
55.4445
53.8824
52.3205
61.6938
60.1314
58.5689
57.0065
55.4442
53.8821
52.3202
50.7586
61.6938
60.1313
58.5687
57.0062
55.4439
53.8817
52.3199
50.7584
49.1972
61.6938
60.1313
58.5687
57.0061
55.4437
53.8814
52.3195
50.7581
49.1971
47.6364
61.6939
60.1314
58.5687
57.0061
55.4436
53.8812
52.3193
50.7577
49.1968
47.6364
46.0762
61.6941
60.1315
58.5689
57.0062
55.4437
53.8812
52.3191
50.7575
49.1966
47.6362
46.0763
44.5165
61.6943
60.1317
58.5691
57.0065
55.4439
53.8814
52.3193
50.7576
49.1965
47.6361
46.0763
44.5165
42.9566
61.6945
60.1319
58.5693
57.0067
55.4442
53.8817
52.3195
50.7578
49.1966
47.6361
46.0762
44.5165
42.9566
41.3965
61.6946
60.1321
58.5695
57.007
55.4445
53.8821
52.3199
50.7581
49.1968
47.6362
46.0762
44.5165
42.9566
41.3964
39.8359
61.6948
60.1322
58.5697
57.0072
55.4448
53.8824
52.3202
50.7584
49.1971
47.6364
46.0763
44.5165
42.9566
41.3964
39.8358
38.275
61.6949
60.1324
58.5699
57.0074
55.445
53.8826
52.3205
50.7586
49.1972
47.6364
46.0762
44.5164
42.9566
41.3964
39.8359
38.275
36.7139
61.695
61.6949
60.1324
61.6947
60.1323
58.57
61.6946
60.1322
58.5698
57.0075
61.6944
60.132
58.5696
57.0073
55.4451
61.6942
60.1318
58.5694
57.0071
55.4449
53.8828
61.694
60.1315
58.5691
57.0068
55.4446
53.8825
52.3205
61.6938
60.1314
58.5689
57.0065
55.4442
53.8821
52.3202
50.7586
61.6938
60.1312
58.5687
57.0062
55.4438
53.8816
52.3198
50.7583
49.197
61.6938
60.1312
58.5686
57.0059
55.4434
53.8812
52.3192
50.7578
49.1968
47.6361
61.6938
60.1312
58.5686
57.0059
55.4433
53.8808
52.3188
50.7572
49.1963
47.636
46.0759
61.694
60.1314
58.5687
57.0059
55.4433
53.8807
52.3185
50.7568
49.1959
47.6356
46.0759
44.5163
61.6942
60.1315
58.5689
57.0062
55.4434
53.8808
52.3185
50.7567
49.1956
47.6353
46.0757
44.5163
42.9566
61.6944
60.1318
58.5691
57.0065
55.4438
53.8812
52.3188
50.7568
49.1956
47.6352
46.0756
44.5163
42.9566
41.3966
61.6946
60.132
58.5694
57.0068
55.4442
53.8816
52.3193
50.7573
49.1959
47.6353
46.0756
44.5162
42.9566
41.3966
39.8361
61.6947
60.1322
58.5696
57.0071
55.4446
53.8821
52.3198
50.7578
49.1963
47.6356
46.0757
44.5162
42.9566
41.3965
39.836
38.2752
61.6949
60.1323
58.5698
57.0073
55.4449
53.8825
52.3202
50.7583
49.1968
47.636
46.0759
44.5163
42.9566
41.3965
39.836
38.2751
36.714
61.6949
60.1324
58.57
57.0075
55.4451
53.8828
52.3206
50.7586
49.1971
47.6361
46.0759
44.5162
42.9566
41.3966
39.8361
38.2752
36.714
35.1526
61.695
61.6949
60.1325
61.6948
60.1324
58.5701
61.6947
60.1323
58.5699
57.0077
61.6945
60.1321
58.5697
57.0075
55.4453
61.6943
60.1319
58.5695
57.0072
55.445
53.8829
61.694
60.1316
58.5692
57.0069
55.4447
53.8826
52.3207
61.6939
60.1314
58.5689
57.0065
55.4442
53.8822
52.3203
50.7587
61.6938
60.1312
58.5687
57.0062
55.4438
53.8816
52.3198
50.7583
49.197
61.6937
60.1311
58.5685
57.0059
55.4433
53.881
52.3191
50.7576
49.1966
47.636
61.6938
60.1311
58.5684
57.0057
55.443
53.8805
52.3184
50.7568
49.1959
47.6356
46.0757
61.6939
60.1312
58.5685
57.0057
55.4429
53.8802
52.3179
50.7561
49.1952
47.635
46.0755
44.5161
61.694
60.1314
58.5687
57.0059
55.443
53.8802
52.3177
50.7557
49.1946
47.6344
46.0751
44.516
42.9566
61.6943
60.1316
58.5689
57.0062
55.4433
53.8805
52.3179
50.7558
49.1943
47.634
46.0748
44.5159
42.9567
41.3968
61.6945
60.1319
58.5692
57.0065
55.4438
53.881
52.3184
50.7562
49.1946
47.634
46.0746
44.5158
42.9567
41.3968
39.8364
61.6946
60.1321
58.5695
57.0069
55.4442
53.8816
52.3191
50.7569
49.1952
47.6344
46.0748
44.5158
42.9567
41.3967
39.8362
38.2754
61.6948
60.1323
58.5697
57.0072
55.4447
53.8822
52.3198
50.7576
49.196
47.6351
46.0751
44.5159
42.9566
41.3967
39.8362
38.2753
36.7142
61.6949
60.1324
58.5699
57.0075
55.445
53.8826
52.3203
50.7583
49.1966
47.6356
46.0755
44.516
42.9566
41.3967
39.8362
38.2753
36.7141
35.1527
61.695
60.1325
58.5701
57.0077
55.4453
53.8829
52.3207
50.7587
49.197
47.636
46.0757
44.516
42.9566
41.3967
39.8363
38.2754
36.7141
35.1527
33.591
61.695
61.695
60.1326
61.6949
60.1325
58.5702
61.6947
60.1324
58.57
57.0078
61.6946
60.1322
58.5699
57.0076
55.4454
61.6944
60.132
58.5696
57.0074
55.4452
53.8831
61.6941
60.1317
58.5693
57.007
55.4448
53.8828
52.3209
61.6939
60.1315
58.569
57.0066
55.4444
53.8823
52.3205
50.7589
61.6938
60.1313
58.5687
57.0062
55.4439
53.8817
52.3199
50.7584
49.1972
61.6937
60.1311
58.5685
57.0059
55.4433
53.881
52.3191
50.7576
49.1966
47.636
61.6937
60.1311
58.5684
57.0056
55.4429
53.8803
52.3182
50.7566
49.1957
47.6354
46.0755
61.6938
60.1311
58.5684
57.0055
55.4426
53.8798
52.3174
50.7556
49.1946
47.6346
46.0752
44.5159
61.6939
60.1313
58.5685
57.0056
55.4426
53.8797
52.317
50.7549
49.1936
47.6335
46.0745
44.5158
42.9566
61.6941
60.1315
58.5687
57.0059
55.4429
53.8798
52.317
50.7546
49.193
47.6326
46.0738
44.5155
42.9567
41.397
61.6944
60.1317
58.569
57.0062
55.4433
53.8803
52.3175
50.7549
49.193
47.6323
46.0733
44.5152
42.9567
41.397
39.8366
61.6946
60.132
58.5693
57.0066
55.4439
53.881
52.3182
50.7556
49.1936
47.6327
46.0733
44.5151
42.9567
41.397
39.8366
38.2757
61.6947
60.1322
58.5696
57.007
55.4444
53.8817
52.3191
50.7566
49.1947
47.6336
46.0738
44.5152
42.9567
41.3971
39.8365
38.2756
36.7144
61.6949
60.1324
58.5699
57.0074
55.4448
53.8823
52.3199
50.7576
49.1957
47.6346
46.0745
44.5154
42.9566
41.397
39.8365
38.2755
36.7143
35.1528
61.695
60.1325
58.57
57.0076
55.4452
53.8828
52.3205
50.7584
49.1966
47.6355
46.0752
44.5157
42.9566
41.3969
39.8365
38.2756
36.7143
35.1528
33.5911
61.695
60.1326
58.5702
57.0078
55.4454
53.8831
52.3209
50.7589
49.1972
47.636
46.0755
44.5158
42.9565
41.3969
39.8366
38.2757
36.7144
35.1528
33.5911
32.0293
61.695
60.1326
61.6949
60.1325
58.5702
61.6948
60.1324
58.5701
57.0079
61.6947
60.1323
58.57
57.0077
55.4456
61.6945
60.1321
58.5697
57.0075
55.4454
53.8834
61.6943
60.1318
58.5695
57.0072
55.445
53.883
52.3212
61.694
60.1316
58.5692
57.0068
55.4446
53.8826
52.3208
50.7592
61.6939
60.1314
58.5688
57.0064
55.444
53.8819
52.3201
50.7586
49.1974
61.6937
60.1312
58.5686
57.0059
55.4434
53.8812
52.3192
50.7577
49.1967
47.6361
61.6937
60.1311
58.5684
57.0056
55.4429
53.8803
52.3182
50.7566
49.1957
47.6354
46.0755
61.6937
60.1311
58.5683
57.0054
55.4424
53.8796
52.3172
50.7553
49.1943
47.6343
46.075
44.5158
61.6939
60.1312
58.5684
57.0054
55.4423
53.8792
52.3164
50.7542
49.1928
47.6328
46.074
44.5155
42.9566
61.694
60.1314
58.5686
57.0056
55.4424
53.8792
52.3161
50.7535
49.1917
47.6313
46.0728
44.515
42.9567
41.3972
61.6943
60.1316
58.5688
57.0059
55.4429
53.8796
52.3164
50.7536
49.1912
47.6303
46.0717
44.5145
42.9567
41.3973
39.8369
61.6945
60.1318
58.5692
57.0064
55.4434
53.8803
52.3172
50.7542
49.1918
47.6303
46.0712
44.5141
42.9568
41.3974
39.8369
38.2761
61.6947
60.1321
58.5695
57.0068
55.444
53.8812
52.3182
50.7553
49.1929
47.6314
46.0717
44.5141
42.9568
41.3976
39.837
38.2759
36.7147
61.6948
60.1323
58.5697
57.0072
55.4446
53.8819
52.3192
50.7566
49.1943
47.6329
46.0728
44.5144
42.9567
41.3975
39.837
38.2759
36.7146
35.1531
61.6949
60.1324
58.57
57.0075
55.445
53.8826
52.3201
50.7578
49.1957
47.6343
46.074
44.515
42.9566
41.3974
39.8369
38.2759
36.7145
35.1529
33.5913
61.695
60.1325
58.5701
57.0077
55.4454
53.883
52.3208
50.7586
49.1967
47.6354
46.075
44.5155
42.9566
41.3972
39.8369
38.2759
36.7145
35.1529
33.5912
32.0293
60.1326
58.5702
57.0079
55.4456
53.8834
52.3212
50.7592
49.1974
47.6361
46.0755
44.5157
42.9565
41.3971
39.8369
38.276
36.7147
35.1531
33.5913
32.0293
30.4673
61.695
60.1326
58.5702
61.6949
60.1325
58.5702
57.008
61.6947
60.1324
58.5701
57.0078
55.4457
61.6946
60.1322
58.5699
57.0076
55.4455
53.8836
61.6944
60.132
58.5696
57.0074
55.4452
53.8833
52.3214
61.6942
60.1317
58.5693
57.007
55.4448
53.8828
52.321
50.7595
61.694
60.1315
58.569
57.0066
55.4443
53.8822
52.3204
50.7589
49.1977
61.6938
60.1313
58.5687
57.0061
55.4436
53.8814
52.3195
50.758
49.197
47.6363
61.6937
60.1311
58.5684
57.0057
55.443
53.8805
52.3184
50.7568
49.1959
47.6356
46.0756
61.6937
60.1311
58.5683
57.0054
55.4424
53.8796
52.3171
50.7553
49.1943
47.6343
46.075
44.5158
61.6938
60.1311
58.5683
57.0053
55.4421
53.8789
52.316
50.7537
49.1923
47.6324
46.0737
44.5154
42.9566
61.694
60.1313
58.5684
57.0054
55.4421
53.8786
52.3153
50.7526
49.1907
47.6302
46.0719
44.5146
42.9566
41.3973
61.6942
60.1315
58.5687
57.0057
55.4424
53.8789
52.3153
50.7523
49.1897
47.6282
46.07
44.5135
42.9567
41.3975
39.8372
61.6944
60.1317
58.569
57.0061
55.443
53.8796
52.316
50.7527
49.1897
47.6273
46.0685
44.5126
42.9569
41.3979
39.8373
38.2764
61.6946
60.132
58.5693
57.0066
55.4436
53.8805
52.3172
50.7537
49.1908
47.6284
46.0685
44.5122
42.9569
41.3982
39.8375
38.2763
36.715
61.6947
60.1322
58.5696
57.007
55.4443
53.8814
52.3184
50.7553
49.1924
47.6304
46.07
44.5125
42.9569
41.3983
39.8377
38.2764
36.7149
35.1533
61.6949
60.1324
58.5699
57.0074
55.4448
53.8822
52.3195
50.7568
49.1943
47.6324
46.072
44.5134
42.9567
41.3981
39.8376
38.2764
36.7149
35.1532
33.5915
61.695
60.1325
58.5701
57.0076
55.4452
53.8828
52.3204
50.758
49.1959
47.6343
46.0737
44.5145
42.9566
41.3978
39.8374
38.2763
36.7148
35.1531
33.5913
32.0295
60.1326
58.5702
57.0078
55.4455
53.8833
52.321
50.7589
49.197
47.6356
46.0749
44.5153
42.9565
41.3974
39.8372
38.2763
36.7149
35.1532
33.5913
32.0294
30.4674
58.5702
57.008
55.4457
53.8836
52.3214
50.7595
49.1977
47.6363
46.0756
44.5157
42.9565
41.3972
39.8371
38.2763
36.715
35.1533
33.5914
32.0294
30.4674
28.9052
61.6949
60.1325
58.5702
57.008
61.6948
60.1324
58.5701
57.0079
55.4458
61.6946
60.1323
58.57
57.0078
55.4457
53.8837
61.6945
60.1321
58.5697
57.0075
55.4454
53.8835
52.3217
61.6943
60.1319
58.5695
57.0072
55.445
53.8831
52.3213
50.7598
61.6941
60.1316
58.5692
57.0068
55.4445
53.8825
52.3207
50.7593
49.198
61.6939
60.1314
58.5688
57.0063
55.4439
53.8817
52.3199
50.7584
49.1974
47.6367
61.6938
60.1312
58.5686
57.0059
55.4432
53.8808
52.3188
50.7572
49.1963
47.6359
46.0758
61.6938
60.1311
58.5684
57.0055
55.4426
53.8798
52.3174
50.7556
49.1946
47.6345
46.0751
44.5158
61.6938
60.1311
58.5683
57.0053
55.4421
53.8789
52.316
50.7537
49.1923
47.6323
46.0737
44.5153
42.9565
61.6939
60.1312
58.5684
57.0053
55.4419
53.8783
52.3148
50.7519
49.1898
47.6294
46.0714
44.5143
42.9566
41.3973
61.6941
60.1314
58.5686
57.0055
55.4421
53.8783
52.3142
50.7511
49.1886
47.6268
46.0686
44.5125
42.9567
41.3977
39.8374
61.6943
60.1316
58.5688
57.0059
55.4426
53.8789
52.3148
50.7512
49.1883
47.624
46.0656
44.5103
42.9569
41.3983
39.8377
38.2767
61.6945
60.1319
58.5692
57.0063
55.4432
53.8798
52.316
50.752
49.1888
47.6242
46.064
44.5089
42.9571
41.3991
39.8381
38.2768
36.7154
61.6946
60.1321
58.5695
57.0068
55.4439
53.8808
52.3174
50.7537
49.1899
47.627
46.0658
44.5089
42.9572
41.3996
39.8385
38.2769
36.7153
35.1536
61.6948
60.1323
58.5697
57.0072
55.4445
53.8817
52.3187
50.7556
49.1923
47.6295
46.0688
44.5102
42.9569
41.3995
39.8386
38.277
36.7153
35.1535
33.5917
61.6949
60.1324
58.57
57.0075
55.445
53.8825
52.3199
50.7572
49.1946
47.6324
46.0714
44.5124
42.9567
41.3989
39.8384
38.277
36.7153
35.1534
33.5916
32.0296
60.1325
58.5701
57.0078
55.4454
53.8831
52.3207
50.7584
49.1963
47.6345
46.0737
44.5143
42.9565
41.3982
39.838
38.2769
36.7153
35.1534
33.5915
32.0295
30.4675
58.5702
57.0079
55.4457
53.8835
52.3213
50.7593
49.1974
47.6359
46.0751
44.5153
42.9565
41.3975
39.8375
38.2767
36.7152
35.1535
33.5915
32.0295
30.4674
28.9053
57.008
55.4458
53.8837
52.3217
50.7598
49.198
47.6367
46.0758
44.5158
42.9565
41.3972
39.8373
38.2766
36.7153
35.1536
33.5917
32.0296
30.4675
28.9053
27.343
61.6948
60.1324
58.5702
57.008
55.4459
61.6947
60.1323
58.57
57.0078
55.4458
53.8838
61.6946
60.1322
58.5699
57.0076
55.4456
53.8836
52.3219
61.6944
60.132
58.5696
57.0074
55.4452
53.8833
52.3216
50.7601
61.6942
60.1318
58.5693
57.007
55.4448
53.8828
52.3211
50.7596
49.1984
61.6941
60.1315
58.569
57.0066
55.4442
53.8821
52.3203
50.7589
49.1978
47.637
61.6939
60.1314
58.5687
57.0061
55.4436
53.8812
52.3192
50.7577
49.1967
47.6363
46.0761
61.6939
60.1312
58.5685
57.0057
55.4429
53.8802
52.3179
50.7561
49.1951
47.635
46.0754
44.5159
61.6939
60.1312
58.5684
57.0054
55.4423
53.8792
52.3164
50.7541
49.1928
47.6327
46.0739
44.5154
42.9565
61.6939
60.1312
58.5684
57.0053
55.4419
53.8782
52.3148
50.7519
49.1898
47.6293
46.0713
44.5143
42.9565
41.3973
61.6941
60.1314
58.5685
57.0054
55.4419
53.8779
52.3135
50.7499
49.187
47.625
46.0674
44.5121
42.9566
41.3977
39.8375
61.6942
60.1315
58.5687
57.0057
55.4423
53.8782
52.3135
50.7485
49.1887
47.6223
46.0649
44.5075
42.9569
41.3987
39.8379
38.2769
61.6944
60.1318
58.569
57.0061
55.4429
53.8792
52.3148
50.75
49.1888
47.6181
46.0588
44.5034
42.9573
41.4001
39.8387
38.2771
36.7157
61.6946
60.132
58.5693
57.0066
55.4436
53.8802
52.3164
50.7519
49.1871
47.6228
46.0592
44.5024
42.9576
41.4014
39.8395
38.2775
36.7157
35.1539
61.6947
60.1322
58.5696
57.007
55.4442
53.8812
52.3179
50.7541
49.1898
47.6253
46.0654
44.5034
42.9574
41.4018
39.84
38.2778
36.7158
35.1538
33.5919
61.6948
60.1323
58.5699
57.0074
55.4448
53.8821
52.3192
50.7561
49.1928
47.6294
46.0676
44.5074
42.9569
41.4011
39.8399
38.2779
36.7159
35.1538
33.5918
32.0298
60.1324
58.57
57.0076
55.4452
53.8828
52.3203
50.7577
49.1951
47.6327
46.0713
44.512
42.9566
41.3998
39.8393
38.2777
36.7158
35.1538
33.5918
32.0297
30.4676
58.5702
57.0078
55.4456
53.8833
52.3211
50.7589
49.1967
47.635
46.0739
44.5143
42.9565
41.3985
39.8385
38.2774
36.7157
35.1538
33.5918
32.0297
30.4675
28.9053
57.008
55.4458
53.8836
52.3216
50.7596
49.1978
47.6363
46.0754
44.5154
42.9565
41.3976
39.8378
38.277
36.7156
35.1538
33.5918
32.0297
30.4675
28.9053
27.3431
55.4459
53.8838
52.3219
50.7601
49.1984
47.637
46.0761
44.516
42.9565
41.3972
39.8374
38.2768
36.7156
35.1539
33.5919
32.0298
30.4676
28.9053
27.3431
25.7807
61.6947
60.1324
58.5701
57.0079
55.4458
53.8839
61.6946
60.1322
58.5699
57.0077
55.4457
53.8838
52.322
61.6945
60.1321
58.5697
57.0075
55.4454
53.8835
52.3218
50.7603
61.6943
60.1319
58.5695
57.0072
55.445
53.8831
52.3214
50.7599
49.1987
61.6942
60.1317
58.5692
57.0068
55.4445
53.8825
52.3207
50.7593
49.1982
47.6374
61.6941
60.1315
58.5689
57.0064
55.4439
53.8817
52.3197
50.7583
49.1973
47.6367
46.0764
61.694
60.1314
58.5687
57.0059
55.4433
53.8807
52.3185
50.7568
49.1958
47.6355
46.0758
44.5161
61.6939
60.1313
58.5685
57.0056
55.4426
53.8797
52.317
50.7548
49.1935
47.6334
46.0744
44.5156
42.9565
61.694
60.1313
58.5684
57.0054
55.4421
53.8786
52.3153
50.7526
49.1906
47.6301
46.0718
44.5144
42.9565
41.3972
61.6941
60.1314
58.5685
57.0054
55.4419
53.8779
52.3135
50.7499
49.1869
47.625
46.0673
44.512
42.9566
41.3977
39.8375
61.6942
60.1315
58.5687
57.0056
55.4421
53.8779
52.3127
50.7468
49.1849
47.6182
46.0615
44.5069
42.9568
41.3988
39.838
38.277
61.6943
60.1317
58.5689
57.0059
55.4426
53.8786
52.3135
50.7468
49.1798
47.9832
47.9945
47.9932
47.9949
46.423
47.2309
47.2169
46.4342
46.4317
46.4327
44.8684
45.6753
45.6619
44.8818
44.8804
44.884
42.9573
44.1255
44.1163
41.401
39.8391
38.2774
36.7159
61.6945
60.1319
58.5692
57.0064
55.4432
53.8796
52.3153
50.7499
49.1851
47.9835
47.9934
47.9949
47.9953
46.42
46.4298
46.4302
46.4289
47.2147
47.2315
47.2151
44.8651
45.6721
45.6557
45.6578
44.878
44.877
44.8786
42.9582
44.1235
44.1131
44.1145
41.4038
39.8404
38.278
36.716
35.1542
61.6946
60.1321
58.5695
57.0068
55.4439
53.8807
52.317
50.7526
49.187
47.6187
46.4237
47.2178
46.4327
46.4351
46.4342
44.8653
45.6564
45.6762
45.6594
44.8773
44.8785
44.8795
42.9585
44.1125
44.1234
44.1126
41.4055
39.8416
38.2786
36.7163
35.1542
33.5922
61.6947
60.1322
58.5697
57.0072
55.4445
53.8817
52.3185
50.7548
49.1906
47.6251
46.0621
44.8685
45.6633
44.8808
44.882
44.8846
42.9576
44.1132
44.1253
44.1144
41.4053
39.842
38.279
36.7165
35.1542
33.5921
32.03
60.1324
58.5699
57.0075
55.445
53.8825
52.3197
50.7568
49.1935
47.6301
46.0674
44.5069
42.9568
44.116
41.4033
39.8414
38.279
36.7166
35.1543
33.5921
32.0299
30.4677
58.5701
57.0077
55.4454
53.8831
52.3207
50.7583
49.1958
47.6334
46.0718
44.5119
42.9565
41.4006
39.8402
38.2785
36.7165
35.1543
33.5921
32.0298
30.4677
28.9054
57.0079
55.4457
53.8835
52.3214
50.7593
49.1973
47.6355
46.0744
44.5144
42.9565
41.3986
39.8389
38.2779
36.7162
35.1542
33.592
32.0298
30.4676
28.9054
27.3431
55.4458
53.8838
52.3218
50.7599
49.1982
47.6367
46.0758
44.5156
42.9565
41.3976
39.8379
38.2773
36.7159
35.1541
33.5921
32.0299
30.4676
28.9054
27.3431
25.7808
53.8839
52.322
50.7603
49.1987
47.6374
46.0765
44.5161
42.9565
41.3971
39.8374
38.277
36.7158
35.1541
33.5922
32.03
30.4677
28.9054
27.3431
25.7808
24.2184
61.6947
60.1323
58.57
57.0078
55.4457
53.8838
52.3221
61.6946
60.1322
58.5698
57.0076
55.4455
53.8836
52.322
50.7605
61.6944
60.132
58.5696
57.0074
55.4452
53.8833
52.3216
50.7602
49.199
61.6943
60.1318
58.5694
57.007
55.4448
53.8828
52.3211
50.7597
49.1986
47.6377
61.6942
60.1317
58.5691
57.0066
55.4443
53.8821
52.3203
50.7588
49.1978
47.6372
46.0768
61.6941
60.1315
58.5689
57.0062
55.4437
53.8812
52.3191
50.7575
49.1965
47.6361
46.0762
44.5163
61.694
60.1314
58.5687
57.0059
55.443
53.8802
52.3177
50.7557
49.1945
47.6343
46.075
44.5159
42.9565
61.694
60.1314
58.5686
57.0056
55.4424
53.8792
52.3161
50.7535
49.1916
47.6312
46.0726
44.5148
42.9565
41.397
61.6941
60.1314
58.5686
57.0055
55.4421
53.8783
52.3142
50.7511
49.1886
47.6267
46.0684
44.5122
42.9565
41.3975
39.8373
61.6942
60.1315
58.5687
57.0056
55.4421
53.8779
52.3127
50.7468
49.1849
47.6182
46.0614
44.5067
42.9566
41.3987
39.838
38.277
61.6943
60.1317
58.5689
57.0059
55.4424
53.8782
52.3127
50.7449
49.1757
47.9946
47.9942
47.9939
47.993
46.4342
46.4336
46.4309
46.4296
47.2123
47.2103
44.8834
45.6576
45.6557
44.8835
44.8838
44.8832
42.9571
44.1145
44.1138
41.4012
39.8393
38.2775
36.716
61.6944
60.1318
58.5691
57.0062
55.443
53.8792
52.3142
50.7468
49.1758
47.9937
47.9921
47.9924
47.9889
47.209
46.431
46.4272
45.6521
44.8821
44.8803
44.1124
43.3334
41.4065
43.3418
42.5828
42.5744
39.8411
38.2784
36.7163
35.1544
61.6946
60.132
58.5694
57.0066
55.4436
53.8802
52.3161
50.7511
49.185
47.9951
47.9944
47.9946
47.9934
47.2099
46.4322
46.4248
46.4257
45.6468
47.2079
44.8793
44.8739
45.6479
44.8761
44.1085
43.3334
41.4117
43.342
42.585
42.5781
43.3419
42.5763
44.1102
39.8432
38.2794
36.7167
35.1545
33.5924
61.6947
60.1322
58.5696
57.007
55.4443
53.8812
52.3177
50.7535
49.1885
47.6184
46.4353
46.4327
46.4346
46.4312
47.2134
47.2113
46.4291
45.6546
44.8749
45.65
44.8831
44.878
44.1089
43.333
41.4129
43.3421
42.5789
43.3418
42.5842
42.5782
44.1084
39.8447
38.2803
36.7172
35.1546
33.5924
32.0302
60.1323
58.5698
57.0074
55.4448
53.8821
52.3191
50.7557
49.1916
47.6266
46.0617
44.8837
45.6593
45.6572
44.8846
44.8838
44.884
44.8818
44.1124
43.3327
41.4108
43.3412
42.5765
43.3409
42.5816
42.5744
44.1104
39.8445
38.2806
36.7175
35.1548
33.5924
32.0301
30.4679
58.57
57.0076
55.4452
53.8828
52.3203
50.7575
49.1944
47.6311
46.0684
44.5067
42.9565
44.1143
44.1137
41.4057
43.3409
42.5729
39.8428
38.2801
36.7175
35.1549
33.5924
32.0301
30.4678
28.9055
57.0078
55.4455
53.8833
52.3211
50.7588
49.1965
47.6343
46.0726
44.5122
42.9565
41.4009
39.8408
38.2792
36.7171
35.1548
33.5924
32.0301
30.4678
28.9055
27.3432
55.4457
53.8836
52.3216
50.7597
49.1978
47.6361
46.075
44.5148
42.9565
41.3986
39.8391
38.2783
36.7166
35.1546
33.5924
32.0301
30.4678
28.9055
27.3431
25.7808
53.8838
52.322
50.7602
49.1986
47.6372
46.0762
44.5159
42.9565
41.3975
39.8379
38.2774
36.7162
35.1544
33.5923
32.0301
30.4678
28.9055
27.3431
25.7808
24.2184
52.3221
50.7605
49.199
47.6377
46.0768
44.5163
42.9565
41.397
39.8373
38.277
36.7159
35.1543
33.5924
32.0302
30.4679
28.9055
27.3432
25.7808
24.2184
22.656
61.6946
60.1322
58.5699
57.0077
55.4456
53.8837
52.322
50.7605
61.6945
60.1321
58.5697
57.0075
55.4454
53.8835
52.3218
50.7604
49.1991
61.6944
60.1319
58.5695
57.0072
55.445
53.8831
52.3214
50.76
49.1988
47.6379
61.6943
60.1318
58.5693
57.0069
55.4446
53.8825
52.3207
50.7593
49.1982
47.6375
46.077
61.6942
60.1317
58.5691
57.0065
55.444
53.8818
52.3198
50.7582
49.1972
47.6367
46.0766
44.5165
61.6942
60.1315
58.5689
57.0062
55.4434
53.8808
52.3185
50.7566
49.1955
47.6352
46.0756
44.5161
42.9565
61.6941
60.1315
58.5687
57.0059
55.4429
53.8798
52.317
50.7546
49.1929
47.6325
46.0736
44.5153
42.9565
41.3968
61.6942
60.1315
58.5687
57.0057
55.4424
53.8789
52.3153
50.7523
49.1896
47.6281
46.0696
44.5132
42.9565
41.3973
39.8371
61.6942
60.1315
58.5687
57.0057
55.4423
53.8782
52.3135
50.7485
49.1888
47.6223
46.0645
44.5069
42.9565
41.3985
39.8378
38.2769
61.6943
60.1317
58.5689
57.0059
55.4424
53.8782
52.3127
50.7449
49.1757
47.9942
47.9947
47.993
47.994
46.4336
46.4341
46.4296
46.431
47.2104
47.2125
44.8833
45.6556
45.6573
44.8829
44.883
44.8831
42.9567
44.1135
44.1136
41.4011
39.8392
38.2775
36.716
61.6944
60.1318
58.5691
57.0062
55.4429
53.8789
52.3135
50.7449
49.1712
47.99
47.9888
47.986
47.9843
47.2049
47.2028
46.4231
45.6475
46.4208
45.6452
44.8777
44.876
44.111
44.11
43.3428
41.4067
43.3426
42.5731
42.5725
39.8415
38.2786
36.7164
35.1545
61.6945
60.1319
58.5693
57.0065
55.4434
53.8798
52.3153
50.7485
49.1757
47.9904
47.9862
47.9891
47.9845
47.2017
47.2022
47.1953
46.42
45.6411
44.8721
44.1069
43.3426
41.7899
39.8443
41.7991
41.0459
41.0322
42.5757
38.28
36.7171
35.1547
33.5925
61.6946
60.1321
58.5695
57.0069
55.444
53.8808
52.317
50.7523
49.1886
47.9945
47.9932
47.9947
47.9939
47.206
47.2038
46.422
46.4185
45.6363
45.6383
44.8655
44.866
44.1021
44.1032
43.3432
41.7935
39.8474
41.8049
41.0499
41.0373
41.8022
41.0344
43.3429
42.5786
42.5808
38.2814
36.7178
35.155
33.5926
32.0304
60.1322
58.5697
57.0072
55.4446
53.8817
52.3185
50.7545
49.1895
47.6221
46.4343
46.4306
46.4344
46.4312
47.211
47.2125
46.4254
45.6505
46.423
45.6479
45.645
44.8754
44.8693
44.1028
44.1042
43.3424
41.7927
39.8489
41.8061
41.0385
41.8053
41.0492
41.0379
43.3433
42.5808
42.5788
38.2823
36.7184
35.1554
33.5927
32.0303
30.468
58.5699
57.0075
55.445
53.8825
52.3197
50.7566
49.1928
47.6279
46.0645
44.8836
45.6567
45.6577
44.8836
44.883
44.8834
44.8795
44.8777
44.111
44.1101
44.1073
43.3413
41.7886
39.8469
41.8031
41.0357
41.8001
41.0447
41.0326
43.3415
42.5758
42.5733
38.2822
36.7186
35.1556
33.5928
32.0303
30.468
28.9057
57.0077
55.4454
53.8831
52.3207
50.7582
49.1955
47.6325
46.0696
44.507
42.9565
44.1135
44.1137
43.3419
41.4059
43.3418
42.5715
42.5712
39.8437
41.7974
41.0308
38.2812
36.7184
35.1555
33.5929
32.0304
30.4679
28.9056
27.3433
55.4456
53.8835
52.3214
50.7593
49.1972
47.6352
46.0736
44.5132
42.9565
41.4009
39.8412
38.2798
36.7177
35.1553
33.5928
32.0304
30.4679
28.9056
27.3432
25.7809
53.8837
52.3218
50.76
49.1982
47.6367
46.0756
44.5153
42.9565
41.3985
39.8391
38.2785
36.717
35.155
33.5927
32.0303
30.4679
28.9056
27.3432
25.7808
24.2184
52.322
50.7604
49.1988
47.6375
46.0766
44.5162
42.9565
41.3973
39.8378
38.2774
36.7163
35.1546
33.5926
32.0303
30.468
28.9056
27.3432
25.7808
24.2184
22.656
50.7605
49.1992
47.638
46.077
44.5165
42.9565
41.3969