/*--------------------------------*- C++ -*----------------------------------*\
  =========                 |
  \\      /  F ield         | OpenFOAM: The Open Source CFD Toolbox
   \\    /   O peration     | Website:  https://openfoam.org
    \\  /    A nd           | Version:  8
     \\/     M anipulation  |
\*---------------------------------------------------------------------------*/
FoamFile
{
    version     2.0;
    format      ascii;
    class       volScalarField;
    location    "0";
    object      p;
}
// * * * * * * * * * * * * * * * * * * * * * * * * * * * * * * * * * * * * * //

dimensions      [0 2 -2 0 0 0 0];

internalField   nonuniform List<scalar> 
487909
(
-0.885793
-0.886652
-0.888295
-1.2348
-0.888295
0.146536
-4.5353
-1.57009
-1.86055
18.4328
-1.2348
1.15267
70.6557
-0.907008
10.531
-0.900937
-44.5408
37.079
-0.679932
-0.182957
-0.888295
6.62267
-0.654776
-28.8226
7.30207
-0.550169
-6.40067
-0.998227
6.79539
7.98996
-9.64054
279.054
25.4347
-1.21885
16.1473
-3.66451
-0.550034
74.6769
7.01564
16.4658
-4.44661
-0.837276
-28.8226
7.01564
-38.301
-0.252378
-41.6915
-2.22361
-1.92228
9.19684
-0.0470368
112.001
21.9484
26.1162
-0.913241
-0.923473
-17.4702
-0.914519
19.2951
-33.7413
46.6308
1.96904
-0.0724944
-6.83604
-83.9294
12.277
9.06885
-1.17835
-1.76188
-105.488
5.67424
7.52327
-0.887004
0.0639399
19.8323
16.6787
5.38338
-0.913506
3.65676
76.8987
-9.64054
-5.87001
9.06885
5.72577
0.505696
-89.9902
9.11695
-3.98572
-6.32453
-0.461214
-83.9294
-87.7576
-1.29991
0.943902
9.03855
-0.744662
16.8425
-2.06527
43.3019
-2.07684
-0.841203
7.52327
49.3914
-3.06719
4.73241
-0.202854
-24.1876
-51.1475
-0.876958
-32.923
-2.87502
-80.4961
85.546
116.295
1.22397
28.2531
63.3372
1.39623
25.308
2.88568
-0.168566
-3.58105
-3.64392
-41.6915
15.7271
7.12508
-0.305268
-0.885927
-53.9564
-6.58048
-0.0224024
-0.917368
369.721
-0.67873
-16.2914
-6.31986
-0.0888023
-61.1673
4.21934
-9.9032
-81.7184
-5.28518
8.85716
-45.7278
-14.864
58.0669
-2.58848
-0.0451511
-4.31756
19.7382
-0.0451714
2.85182
-2.14181
-13.5576
-27.5495
-18.6039
-0.0104303
-0.144736
-6.55632
-0.822101
-3.57299
117.329
-2.20886
-1.39708
-0.484308
18.4328
6.79539
-5.83924
-0.55166
40.4831
103.005
-6.96852
-2.03893
-0.26002
-80.7091
228.081
-0.925845
8.65675
-139.907
-96.0952
52.2106
-0.908377
2.78396
-53.7532
124.869
10.1081
90.4334
-0.896007
10.248
-59.573
67.6611
-0.897404
-1.92604
-3.22162
117.159
0.515444
1.55912
-2.05395
6.539
68.5317
1.20863
0.0517158
13.7721
-0.93196
3.01709
2.78906
4.96689
-44.3204
-30.4327
-38.1874
32.5418
-3.4178
1.9474
-0.930397
16.2273
-3.98056
5.99585
4.94851
-2.43828
27.496
-7.12315
-104.269
1.89314
-0.265373
3.59109
100.726
-1.17835
6.16615
7.78601
92.6986
-32.2626
0.209498
8.97288
-4.42463
2.54333
-0.202854
-8.1169
3.54768
16.2094
16.1578
-33.1849
-5.45194
5.25494
12.9633
-17.9439
-7.27417
7.30315
17.4889
-45.7278
7.058
-96.5412
-61.6058
-4.34743
-0.165448
-3.63578
5.08039
14.7188
-0.886145
5.33431
-4.9061
40.4916
-8.13596
11.9116
-53.2251
2.16127
-0.90595
3.77957
36.2011
6.81533
-2.7839
1.14462
-3.86461
-31.115
2.64897
0.419216
-4.12718
124.702
6.53352
-0.973627
-2.48776
-34.2238
-1.32555
-0.912944
-11.9741
0.585453
1.85261
-18.5466
-0.798205
8.18183
0.243128
13.9219
9.68406
-0.552769
-2.11102
-0.669043
1.07447
-3.65839
-1.54944e-05
109.483
-17.557
27.5378
-0.960535
-3.93875
-1.09736
9.9999
-1.18339
8.9326
-11.2421
-12.3908
3.77211
3.2809
4.50918
-1.1198
-69.9309
-14.864
0.806288
0.0025675
-0.964344
-0.730107
-0.943431
1.21488
-1.78268
1.25567
-10.8025
73.3306
-61.4798
4.11298
-0.771134
0.984617
-15.1428
80.1301
21.7926
109.368
-0.897488
1.76881
36.383
0.409366
-0.0987394
-10.182
107.395
20.693
-0.267658
-6.51148
249.451
9.82112
209.676
-2.52353
-4.67276
77.2329
15.1606
17.1327
-10.1688
-7.12315
10.5199
-7.15546
66.4966
11.5474
-8.47282
36.6459
14.0495
-30.024
-0.85451
-3.16739
93.3693
-1.22296
-30.236
-2.87063
-0.917169
42.385
9.34992
21.6908
-29.4214
13.2879
-0.198764
-0.00489398
0.161009
-0.651265
-94.0938
-2.65624
12.905
1.07539
-2.05486
-0.894386
-0.878203
-4.42007
26.1162
-5.65224
0.000132041
-0.897543
327.775
-20.1802
-0.00259534
24.8796
192.71
10.9665
-7.66117
-4.94335
-0.904185
0.0886897
52.4374
-5.64073
16.0488
-6.81545
-25.0011
6.69482
-24.8735
9.11695
-13.547
10.9229
4.86652
8.18183
11.6359
-0.898316
22.6191
-6.41822
-1.80377
-10.1072
80.6301
22.2048
-7.61155
-1.86055
15.7938
7.30207
0.219053
46.6308
-6.32453
-113.269
-1.87655
3.59109
-1.97218
42.385
-6.28268
0.000534279
22.0391
-1.93863
11.2635
-0.819818
-33.913
94.0032
1.698
91.5304
-0.998227
-18.4463
-3.78177
104.561
-0.934865
17.4271
17.9471
-2.11102
-77.1241
-0.889641
-1.84725
18.3257
0.293468
30.4779
-0.921622
-84.1433
-0.437875
-0.00532084
169.468
-23.9249
-7.51686
-1.03673
19.6056
-0.811094
-0.958687
-0.88812
-5.81523
-1.61781
-0.0314435
-0.876958
283.885
-1.5881
6.0311
63.6147
0.0562301
-0.885546
37.6539
21.4225
74.0127
112.001
-0.887004
-0.841203
-2.58848
-0.0870163
-1.43666
-1.89513
-235.338
283.885
189.767
21.0819
16.78
10.7781
-0.901722
12.0566
1.8006
-0.902058
30.631
-2.29146
-57.9771
-27.2967
-24.1876
-0.87395
7.20409
-5.19955
282.855
-5.65224
-3.49136
8.15954
-9.56236
-0.93196
9.58216
5.31114
-59.7678
-1.50268
-29.0553
-0.569627
-4.87527
76.8255
17.7579
53.845
1.89314
8.37056
5.56308
-0.341537
8.38414
-0.542096
-0.373911
-83.2327
10.3433
4.72777
-3.58261
-0.109957
-6.50508
9.84882
-9.6483
-0.141001
-3.10421
4.85665
28.242
-2.68073
2.65413
-0.914212
7.14635
-25.3257
13.0133
-0.544491
-3.36993
284.283
-0.79222
70.379
-8.00806
-1.89066
-0.910506
-0.872197
0.748158
-10.513
7.53194
1.63629
-1.82602
-28.9013
-1.21885
-43.1804
-16.4865
0.000534279
1.02923
-24.9401
36.4573
-102.252
-0.903886
106.196
-0.900943
-0.900575
17.1612
-3.2148
-50.8763
189.767
6.22617
-45.1025
3.72312
-43.2973
-2.27687
-1.54613
7.60316
17.6365
-140.382
-22.2664
17.3131
-0.570604
-0.373911
7.77108
-55.464
12.1964
-0.917327
61.7726
-72.7124
19.0119
-2.89346
12.7075
5.04064
8.69422
-6.28268
8.37056
-1.63604
-0.571291
-8.72089
-1.19889
-16.894
5.65673
68.4819
-3.65584
-1.15081
5.6799
-14.1144
16.1768
-5.39231
2.19206
-81.2072
80.086
24.3427
-3.78177
9.84882
-5.78374
11.1912
-38.0655
8.82057
-0.895538
-0.911366
-20.4939
-0.882276
-11.9336
-1.62313
-52.0176
10.2786
-3.38055
-6.32126
-31.9484
-33.5989
-0.71116
0.18129
60.628
-1.59408
-2.51493
-0.0444851
-2.71182
8.27842
-0.00381432
17.6576
28.5576
21.3815
-6.92186
8.58151
-0.84138
-9.88224
1.27851
-2.27715
324.047
-50.4223
-0.898964
-2.36514
-16.2309
4.11715
1.77541
-1.05351
-9.66284
-11.5036
8.77423
-7.93551
25.114
7.1776
-2.67883
152.44
-5.42893
-13.6718
-23.343
140.5
-8.12225
19.0292
-3.58208
-0.734297
-0.900937
0.702844
9.3861
-0.751216
22.0391
-20.8839
-0.912492
162.655
16.78
-130.314
165.792
-0.0279056
-0.904666
-0.905794
7.35084
-2.87502
38.5195
-1.74775
-0.800837
41.1637
-8.37457
15.93
-10.2875
7.63081
-6.17792
-6.56206
-0.865214
-0.901431
-4.31756
11.9027
-0.855259
-26.492
-5.08444
-0.000325938
-154.514
-0.652342
3.63604
-1.07138
17.2068
-0.518166
-8.50111
-0.90025
-0.675081
27.9644
0.902702
90.4334
1.21488
-8.88079
-252.89
7.82818
-4.09872
-0.927414
5.51469
44.1355
-10.498
-0.262085
41.4316
-24.1756
-0.176483
-55.7312
-15.8757
71.5431
3.66824
13.5261
26.7993
2.39206
4.81997
-2.24165e-05
0.00794503
-8.17053
56.7955
-29.6794
24.0114
266.419
122.796
-1.15047
-2.15607
-10.7183
21.6956
4.80566
-1.04151
-74.0382
-11.2783
47.8882
-10.1795
-0.810458
-120.146
5.95557
28.2238
8.52298
22.9084
11.9116
-0.0237196
326.425
1.78282
-0.885052
-13.7516
-24.5614
0.903597
0.608
-11.6714
-3.4716
4.74458
-4.98961
16.3823
-1.32555
6.68455
7.5523
-0.0798249
-0.70001
-0.290062
25.1811
-21.1864
-0.685256
27.85
0.34781
44.2865
5.10087
-10.5759
10.0632
27.5378
-0.900937
-0.550169
11.2162
-137.018
-0.461214
-3.70709
103.005
100.726
23.363
186.685
-55.2364
2.85466
-1.86321
153.102
-27.5174
5.34822
-0.549357
-1.80377
-0.913241
-46.4714
153.102
0.0639399
2.77692
112.033
-2.33733
-1.86229
0.933103
-0.669043
13.2879
36.4253
13.0705
16.78
112.033
-9.58368
26.2334
-29.6678
-0.0224024
-0.908871
20.2641
-54.331
-0.464422
-1.76188
16.8425
19.7382
0.776933
8.45402
317.043
-0.908426
-5.81523
-0.278496
-0.904666
-0.669043
1.47088
7.96228
-15.3995
2.52357e-05
-3.87223
66.6466
-342.689
-7.06592
-5.41038
7.52327
26.8445
-98.8607
119.54
344.678
8.26444
-0.75824
-3.55354
69.2654
44.2969
-22.2664
15.6695
-5.45822
21.1351
-0.287386
-0.901438
63.0876
161.617
46.8388
3.74194
17.9476
10.248
12.9633
-22.0808
-3.85752
12.2331
-17.4192
5.98363
122.071
-2.04015
-0.0328371
5.56667
-2.33032
159.444
-7.90798
-10.39
5.35
39.1832
158.968
-0.122843
5.56506
5.69694
0.120617
-2.03483
31.647
-28.7631
-0.860574
-67.6198
-7.92212
-0.86685
-76.0853
-0.901421
-0.893459
-4.6057
9.90255
12.9625
7.34179
-3.65811
10.7801
-0.828814
1.77541
-77.9458
-6.81545
-0.901722
12.7075
17.2068
0.585858
-1.02109
-65.1415
-24.161
-20.5484
193.109
5.52891
-3.77578
-0.897543
-6.16493
-0.552164
-0.895538
1.9474
36.2011
-0.897488
11.6359
-0.87395
17.3765
18.5947
31.9533
-4.84946
16.7729
1.51597
2.54937
1.21488
-1.75409e-05
32.7695
-43.0135
-1.23097
-2.94813
-2.50171
-0.0052568
6.53352
249.451
-94.1913
5.13527
2.14702
10.0256
16.943
-13.9294
-10.1319
21.1217
96.2105
39.38
-0.905319
-26.6288
1.09589
-0.951491
10.3769
-2.42638
105.128
7.6568
2.90003
0.000534279
5.56308
10.3573
1.52468
76.3833
-2.77211
88.9007
-0.664941
115.485
-0.906487
162.083
-2.04015
2.62416
-11.1523
-0.919534
14.6735
-0.64959
14.8548
11.1955
-15.6328
33.1485
60.628
-2.5684
-7.90798
-1.36991
-0.0012069
-0.916285
3.52353
-20.4103
-0.91407
-0.907099
9.57215
13.7862
10.248
-102.252
-4.84946
-2.11756
53.9351
-11.0762
-1.39062
-0.528885
5.034
2.23974
-44.3204
17.3131
-13.9294
-3.71499
-0.463156
138.365
1.73492
94.0663
142.229
22.0718
-1.00859
-0.851817
10.3481
-2.77211
-3.33818
-8.82113
-17.7693
14.1711
10.1504
-1.83439
-0.898389
-6.38867
12.6852
-7.27417
184.284
-1.6663
6.49327
-0.761138
71.9149
2.73761
-12.9474
5.31632
-1.27711
6.34775
11.779
20.4654
-1.558
-2.71182
0.14489
138.25
7.40439
90.4334
-24.5761
-6.8137
33.1902
14.2899
8.96634
-13.5251
19.9872
2.15164
1.65729
-1.05351
-15.0692
-9.29809
-0.878702
-14.2981
32.7695
117.317
-10.5724
20.7896
-37.2201
0.121266
-3.65416
0.189388
4.97612e-05
-2.74043
-6.86371
0.14489
-3.30737
6.32681
-20.957
-19.4965
-37.3401
4.71853
24.112
183.9
15.8875
6.01533
5.40326
12.913
15.6482
-2.7521
0.0886897
117.317
0.279741
-3.41957
-25.5544
-31.676
-2.095
-4.44652
-0.76832
14.0722
15.9318
-8.097
-59.289
-1.31099
52.7133
10.4594
22.3115
12.5559
-4.11586
-27.5314
11.4306
-0.706999
26.7029
2.72984
-11.1375
-42.7145
-1.33287
79.3308
19.292
6.11518
27.5042
1.86095
-153.414
-2.23959
-0.679932
-47.6828
-8.26129
-20.957
-0.819818
-1.05351
27.79
-0.944012
26.2334
34.3973
71.5733
58.1313
278.003
10.7883
-0.901021
8.39382
-0.917014
-3.45796
19.0119
16.31
198.231
369.721
-10.6299
-0.000409526
-6.67573
-0.846639
-0.18473
39.3094
152.086
9.7265
-0.86685
6.57387
199.571
95.9955
12.0347
9.46838
-17.6833
70.379
11.1139
30.3962
4.09603
42.4683
18.8883
51.5453
-12.8978
-2.89344e-05
-0.924747
-9.75754
-2.35439
3.60395
4.27462
-6.47981
9.61546
-17.6235
8.65765
7.84223
-0.910897
2.16165
15.1149
-0.902884
-0.68703
16.0901
-4.00677
-7.39484
18.5609
9.61525
0.860986
-10.7312
6.67329
-0.198764
-0.903283
-0.897523
3.49825
59.226
56.8924
34.3973
-36.998
-2.37034
7.30315
-0.895538
-1.21885
-1.92228
-102.857
-2.06527
-1.14227
-6.73415
35.3703
-17.557
18.8938
0.278253
-43.946
-0.905794
57.4089
5.56308
-15.008
99.2414
9.30616
161.19
-0.0886755
-0.732714
26.1162
14.4767
49.3914
4.21934
71.9517
0.585453
4.40976
-0.898389
6.0311
-45.1025
-0.800837
-9.58368
88.9007
19.0119
261.244
3.52846
-10.1307
-15.2403
-18.7406
-37.2592
-6.20201
-0.876958
-4.26463
26.8454
-17.9439
3.2809
-0.897543
8.20423
30.6947
10.5787
-6.08898
-4.06155
-6.67573
6.86561
3.97009
9.3633
135.744
-1.39149
-10.5724
6.63221
-14.9397
2.85182
1.55912
-61.6058
-0.964344
-7.66117
5.59586
18.5089
-26.492
-20.9052
-4.18542
80.5656
7.26544
-0.267658
-0.90025
6.01533
3.1133
100.834
-31.1391
17.6949
-0.333042
3.01709
-4.9061
-32.6699
2.7356
12.0566
-81.3631
0.634768
0.441963
-0.218473
30.3962
-5.69249
-15.8757
7.17495
-12.0822
-0.00372514
-19.6858
-14.7402
42.2541
-17.3865
-0.930397
-58.5378
-50.1023
-0.898316
1.94498
-1.30664
348.972
5.97073
-2.11756
-2.73901
-0.867367
-0.588451
-23.4586
-0.898964
9.4456
-0.549357
-0.559152
94.9653
-2.47143
24.3968
-0.912919
0.00216482
-15.1444
99.2414
-6.08713
0.00019321
-7.97329
-5.45822
8.0596
-6.79401e-05
-0.994127
0.122674
-59.7678
5.56667
6.86561
-3.87983
-0.892557
-12.1144
-2.14181
-0.109957
-76.0853
104.084
21.6634
-0.899161
-4.2346
-22.0808
-3.33818
-5.50962
17.595
-2.65624
8.71079
-51.8491
-7.27783
-0.915293
14.4925
359.097
106.196
1.51597
-0.900052
0.790409
-0.934865
-0.00690611
-1.59408
-0.863378
128.271
0.983312
-1.92228
-87.1281
-1.71185
0.000122543
72.2478
-0.214249
-9.51102
0.0827312
-0.00084243
0.945543
7.78601
-2.89699
-0.664941
211.957
-0.465185
12.5765
-13.3813
-1.39393
-9.47963
-15.008
134.247
-17.7721
19.3858
-3.78177
-0.954144
-87.1281
2.75315
-0.604821
-0.865021
-1.61989
1.33487
41.513
2.841
-16.7685
-0.165926
3.77957
4.53433
-9.29809
-3.01253
-0.686542
4.66682
1.41058
-6.16493
-0.913894
0.312457
-21.3007
-0.3743
-23.7503
-52.8466
14.1262
-51.2998
-0.698243
-0.761963
-17.872
11.2162
-0.895538
-3.30737
26.8454
10.7701
-0.280845
32.3968
17.0288
-6.33657
54.0479
9.9999
-14.3894
7.40439
10.7701
-2.95671
-3.13856
-0.247803
2.26778
51.8108
14.0359
-0.00132945
2.8603
6.63221
-88.9233
-0.000151142
22.9548
-20.1002
-0.905827
19.7808
-36.8782
26.578
-3.38364
13.189
69.2336
-0.743564
62.8117
34.9284
29.6895
-0.993452
4.88916
-6.97869
1.44717
-4.56278
-6.51148
72.3474
17.638
-2.64295
-36.8438
-1.50477
26.448
24.2822
-10.868
162.549
-16.9214
3.24935
-0.447433
-43.2112
10.0475
124.112
-20.5319
-12.0822
-0.928098
-32.343
2.96357
-0.800837
3.32603
-73.1224
-0.536982
-11.8684
-3.01411
-4.05008
6.42352
-4.17526
13.5921
7.96814
124.06
-2.83682
-5.93986
28.0094
13.0981
-24.1355
-0.546084
-0.789598
3.2809
7.92195
0.224892
17.3178
82.5975
-6.47333
-3.69031
-5.49246
-16.5701
22.458
-36.5019
8.7264
5.56712
4.13446
-15.6502
202.873
-16.4095
180.312
0.897787
13.7315
-2.44466
-7.90798
-0.913506
-0.904941
-0.0224024
-2.37034
-1.54956
-0.879023
-0.240795
9.30616
65.7364
50.2934
-9.35263
-0.574212
2.75694
-0.883424
-15.701
55.447
116.934
-0.819818
3.97009
4.49848
135.744
-0.261454
-13.5576
-6.50508
-0.877374
-0.267658
-4.36067
-1.39037
10.5213
-5.13885
-0.646607
-1.89066
-87.5718
9.88571
-2.11713
17.1412
17.5961
10.1161
-9.66821
-0.897404
-0.900943
5.99913
-0.907098
11.4938
-0.915038
31.2406
-36.556
92.8202
11.6436
32.5418
7.77108
96.2105
-8.58722
-9.84349
38.6883
1.75987
9.19684
4.90443
-18.6368
35.6921
92.6986
9.7565
-18.033
-2.65624
-0.0314435
-1.52693
-5.41228
36.4253
-2.10106
-0.901021
-0.972452
-24.1252
70.379
13.0968
9.49505
-0.913241
37.1578
-3.06719
149.039
12.1222
0.692444
-1.18339
-0.878203
16.8959
-7.57283
2.06071
3.98464
-3.71499
-17.7721
-6.79401e-05
-0.883424
8.88642
-131.78
166.019
3.82456
21.904
-1.71774
-2.46997
-7.481
-7.27417
4.50918
12.6852
4.66682
-140.382
-3.77474
-0.464422
-11.1523
-0.846639
-3.87983
18.369
-2.59815
167.944
-5.84407
18.4275
-11.0811
51.5484
90.4334
-4.74209
-4.34743
-43.4795
-4.94335
-12.6098
17.0511
-5.08444
-0.92489
7.88369e-06
-8.28221
1.87931
18.3213
0.934907
-7.43836
-5.10962
45.9293
-0.90185
-0.917519
0.817382
2.78906
40.4916
4.11298
6.69482
-7.95952
165.174
-0.15218
-5.85645
-8.91692
-5.9302
11.3942
5.08587
-81.9451
12.913
-2.41531
-41.1581
-0.246519
-0.892739
4.37173
-25.8158
-2.7839
-11.3682
63.8009
-5.19955
6.40615
13.1245
37.3475
-6.58237
3.60395
-10.8887
6.98447
-9.62132
-2.36514
13.0196
-11.8677
47.8472
-1.93955
-11.8535
18.1644
117.054
7.24623
0.219053
9.46821
2.03933
21.0295
-9.75808
-0.463156
-3.70817e-05
-9.87029
-6.72251
-4.34743
-0.91407
286.78
9.9669
1.10833
8.67506
-0.25844
15.2312
-1.0705
200.6
-1.93863
-2.7266
0.477232
-11.1068
1.66109
-13.4021
-1.12005
181.877
-3.28436
-16.6744
-3.98056
2.24175
-15.7747
-0.246599
14.2208
-37.2254
100.397
351.551
30.8999
17.4271
5.85268
-36.1172
107.35
9.73671
-0.761138
-57.4366
-19.1342
-34.7824
2.12284
0.16937
-0.982431
3.65676
-0.361894
-0.908871
37.2351
-0.346205
8.08493
-3.87223
-3.31766
70.379
63.3372
-0.902058
-0.88025
-9.62314
16.7903
-0.686542
-6.79401e-05
-29.0553
-15.8757
63.6415
24.6292
-1.40901
-0.745231
-47.3515
76.2032
-0.893459
-0.912944
-4.99355
-0.0863872
4.72436
-3.60895
-0.26002
-0.910506
193.109
-17.872
-140.382
0.000698562
-1.17448
-1.57609
0.0139695
8.58154
-0.910448
-0.0380796
3.87163
-9.62132
-3.15446
-3.95335
-7.62208
-19.17
23.8646
-3.4178
2.82443
-17.9439
-2.95671
-4.34743
-1.45448
-66.1931
-9.37281
40.6152
1.54105
-0.822939
-0.0539527
-3.29346
-0.901631
4.84856
-0.150811
5.60648
-0.880815
-1.36828
-1.61702
-3.24903
-2.21817
24.1542
-0.363076
-0.892839
32.9513
0.000122543
2.12284
8.67575
-5.27576
99.5835
87.1739
41.1534
-0.74455
-3.71782
-20.0945
84.0432
-58.8872
-4.10658
11.4306
100.834
-44.2241
10.8867
0.187953
-0.891645
-9.71427
-6.20547
47.5232
46.9454
-0.849079
-1.54704
-1.97378
-0.000151142
5.23361
-2.79458
4.51862
58.2253
-7.64874
0.867409
1.47985
18.2524
0.0209214
9.60262
18.059
-32.465
21.2354
-0.915678
31.9374
49.1534
41.6974
-11.0544
-0.0240659
-0.799934
-0.810334
-3.06062
-5.44722
9.35861
98.3276
34.4257
-1.88942
14.2234
28.3628
5.78931
1.96766
16.0712
-0.897228
-4.31756
-76.6802
11.758
-77.7355
-2.89346
4.89594
-15.8993
12.2288
27.6817
0.948705
-21.3537
-38.9832
9.82112
119.603
68.001
-3.38364
0.187953
-139.308
-35.3521
17.8089
-6.91741
333.686
9.46456
11.8454
-0.903807
23.2602
-44.8282
4.78365
-14.7414
25.0694
93.3693
1.67837
38.2405
6.01219
28.0867
-6.97832
-0.579338
-0.934401
6.68141
-0.901823
61.0268
17.0843
-9.20243
68.6699
8.13751
21.3841
49.334
-1.56748
5.63092
-0.894386
2.5194
-15.3533
-0.789598
-73.1224
10.1389
-0.265102
14.4655
18.0447
8.16672
-3.66224
126.29
1.09738
3.4103
-5.82637
-5.68942
-3.95848
360.529
-7.68006
176.017
-0.699373
-0.359184
0.897787
10.9574
8.15753
5.86627
-35.9547
75.1114
-6.47061
228.081
3.83632
-0.881646
1.18809
2.58825
-27.9367
-62.5442
-21.2848
-10.3312
93.4765
-8.63848
11.8209
-59.3391
6.01219
2.52496
-0.895362
-3.85165
185.863
8.42282
10.1081
91.2098
-37.3723
109.624
0.0562301
6.74756
1.62851
-29.6678
1.97455
12.4625
6.16326
-15.701
-0.061834
-1.76188
-4.84589
-0.895538
15.7516
-6.51474
-6.26172
-0.0886755
7.30315
1.39623
30.631
-0.910291
-15.2403
-131.78
-1.76188
-0.0888023
-0.569627
-0.000144208
135.744
16.2323
-0.863301
-51.4997
12.0882
-11.6957
-4.6057
-13.5576
6.539
-0.165448
-0.956223
-0.873729
-80.7091
-0.872197
-2.64814
-0.0208453
60.628
-21.7801
-0.907098
1.73656
-3.58526
-0.165448
-46.4645
-3.54575
-0.898964
-2.36514
-44.8658
-8.25551
1.80549
26.7742
-24.379
-1.06659
22.4414
-0.90025
-3.87223
-0.91407
-3.43994
11.0995
29.7786
-2.74803
-9.02748
-3.36511
-1.93559
-1.15081
72.2478
5.03617
-3.98056
1.14462
-13.2071
-18.5532
-44.2455
15.9897
66.9669
5.76327
15.7374
-31.9931
-0.91407
-2.5047
-3.15446
-44.8658
-77.1908
1.70724
6.26429
-0.920362
-0.891183
7.87961
59.5073
9.53415
-35.7541
-88.9284
-3.78177
-15.8757
-0.0740686
13.0473
-0.68703
72.2478
-6.4916
-59.5312
16.429
23.7087
9.07793
0.815265
-6.59905
1.69694
-6.16493
-1.58137
-4.46507
11.2635
-0.542096
-1.62313
3.63587
31.8648
12.8414
-0.71702
12.5765
-8.1698
5.60648
1.14462
-6.8137
17.0288
-3.88198
-0.875813
21.1257
2.38456
-5.73864e-05
-0.906647
2.02872
-27.7766
-2.9735
-23.9958
1.0468
81.8643
11.7322
-0.865214
-3.65416
8.67575
-44.8658
10.8247
-21.328
0.836518
-1.6989
-0.95903
-17.0763
-10.9183
-24.1692
16.0393
-0.0796689
-3.97579
-26.7413
344.781
90.4334
9.30616
4.66682
-0.891645
191.96
-0.0740686
6.94662
19.6213
13.3244
0.474746
59.307
-81.2438
-6.48857
98.7249
11.7262
91.4851
-2.67883
-0.290062
1.83844
-14.2981
-0.800837
-43.886
4.56453
-2.398
-4.46507
1.13068
86.372
9.23594
2.13651
-0.824694
-5.84708
-3.71048
-2.86549
-69.8319
-29.7171
-48.8452
-1.00641
6.52719
-20.957
3.2809
-3.13856
-43.4795
23.4031
-0.735278
14.7205
4.94918
0.168376
0.330928
21.7636
-6.88369
5.42681
53.8978
13.8057
27.0296
-3.20849
-26.7243
4.74458
-25.5544
2.85182
-3.38364
0.817382
-4.31756
10.8247
-24.8182
4.44599
-0.348584
133.652
87.2708
-2.46543
18.9056
9.1652
9.13712
50.7396
-14.2105
-0.304776
-2.63856
-0.0233368
-31.1391
-1.50477
-2.53492
-82.438
16.8223
61.4267
72.8257
-20.1183
-19.0322
-0.857253
-104.111
-6.87903
15.0868
-4.98152
-0.772915
-77.0194
-16.2431
4.85724
-19.7315
319.712
-73.1224
-11.8677
5.47066e-06
58.3566
214.819
4.32083
47.205
13.0419
307.296
-0.614279
-2.77211
-63.4595
-2.57177
-120.303
-27.437
108.124
-1.38855
-85.5139
64.6338
-2.2274
5.83532
-22.2812
-0.732714
-1.15081
17.5969
35.7639
19.3755
71.458
166.019
-0.237201
-19.047
4.04091
98.448
-1.39149
-78.0959
-55.0672
92.1428
-0.801014
-0.46317
25.0699
-17.8616
0.817382
9.84882
-33.3704
-2.50166
228.081
24.0004
5.02465
-1.32394
-2.41531
-1.3981
-5.28122
9.30886
-1.95531
-1.70483
21.4214
-49.8982
0.857718
17.2571
24.3573
6.69753
-38.283
59.8286
-1.99198
-0.527693
-0.917327
-0.388751
31.7955
-4.03744
-14.732
101.568
-0.944012
-19.9014
-6.10275
40.2347
-6.96951
11.9421
-1.41424
-1.58577
2.24175
-2.71182
24.3282
-7.67442
-17.118
117.156
-7.6026
66.8466
58.7357
20.7852
-0.684726
-0.549122
-0.982431
-5.35028
-24.9126
2.08599
-3.54435
1.27684
-0.903201
1.21351
8.30552
67.4262
-0.195512
-8.0161
-0.954144
4.31236
-0.562835
-1.00334
11.1341
1.16653
7.27316
101.358
-4.68058
-0.489225
33.5338
-0.91471
170.447
-1.6663
-0.913894
-1.57609
1.13068
1.48082
0.364139
-0.0669474
7.62555
-7.96775
-3.96398
8.6716
-6.50508
-0.236997
100.476
16.78
33.1902
44.4298
-9.37281
5.85264
14.6352
49.1438
24.3108
56.529
-2.2088
10.0702
-0.467127
2.15901
47.0121
-31.5938
-0.484375
-0.901431
2.01156
-0.901431
16.8425
-24.8182
-78.7354
6.13838
-0.261454
-0.745231
10.277
-55.1723
10.3904
0.900983
8.67307
14.7927
45.71
-2.52353
1.21488
0.0886897
189.767
-9.86222
-64.2214
-0.278496
31.7955
-0.11004
0.93622
346.166
1.1764
-0.956223
-4.79714
242.489
46.7646
16.6707
-2.20886
-44.3204
-33.8804
1.77126
-1.16376
7.7124
5.70584
21.0715
66.6466
-0.907099
18.8883
4.19161
-0.205903
-1.17448
-0.907098
-7.06844
88.2238
12.3251
12.4287
-38.3552
0.0256758
8.65886
-0.0987394
-12.7034
-5.65224
-1.15081
-0.730933
110.962
-128.901
8.39721
1.24501
-5.94263
-3.95335
-0.454017
31.661
-54.3964
10.6258
8.05001
17.4517
5.89094
-4.98961
-4.67276
-6.32453
-0.569627
9.84882
71.5431
-0.901438
1.73492
14.6627
-79.4179
-50.5853
-66.1931
21.3738
3.87163
-4.12359
1.72744
-28.3593
35.0237
17.6385
0.836002
21.6771
-0.819818
-4.78138
-35.1327
-1.61465
-4.95052
10.0995
-112.532
-26.5797
1.91279
-0.880815
-132.823
24.3282
213.715
11.0241
-15.3057
-25.3883
9.46444
0.710312
-70.8955
11.3665
10.1389
-2.71182
-0.0882955
-17.7125
20.3766
-1.14227
-0.549357
5.69852
-5.27576
4.22558
-24.9126
16.2839
-14.784
20.9784
105.596
-27.3786
0.14489
6.34281
-58.571
8.15753
1.29383
29.3078
-0.909318
-24.5761
-36.7362
1.41058
13.8747
-16.9111
87.88
-1.00334
-298.294
-3.42892
-9.13416
-4.32006
0.223189
-21.991
7.25341
21.0934
-7.53148
98.7524
152.575
-2.68438
-2.34098
3.82456
-0.895538
-1.92865
30.7208
70.1035
1.48082
10.3675
-9.36749
13.2329
7.80933
-117.885
-72.2361
100.834
-68.2736
-3.54575
1.61617
-1.02481
-0.925845
-10.1484
-0.897543
-19.6858
-0.974103
-0.0240659
-96.7567
18.3905
13.5018
-0.0253418
-3.69406
6.88944
-0.549357
-3.19958
1.70724
-14.3145
-0.0827824
22.591
-20.8073
-31.1871
61.7726
1.55912
13.189
9.9669
-10.381
26.019
138.5
62.4948
19.0037
108.093
-0.992729
0.580381
3.61076
-0.915293
-15.7747
51.7959
-34.9759
-3.13866
-0.888264
-34.1716
0.511528
24.0725
-0.262646
-52.0176
9.57215
-9.51102
-0.339305
-21.328
21.0758
13.1168
-37.5916
69.8381
1.34131
-64.1737
99.7798
-3.86461
-9.11253
0.341606
-87.1281
-14.7402
-2.02574
-298.294
-0.579338
-2.398
-41.3044
5.34388
60.3825
-4.06255
14.0031
-27.2598
-0.687607
6.49327
0.312457
7.62894
86.372
69.7536
-0.864373
-43.3203
-1.09005
-51.866
-29.7297
7.3476
23.4031
-0.0287981
73.2556
40.6596
-42.5119
-28.1385
43.8135
4.94918
13.5018
-0.232714
-0.882942
0.310361
-0.900943
9.7727
7.16312
16.4068
4.89605
-0.579214
0.984617
-4.31756
15.6763
-5.13885
2.12284
10.5339
79.4839
-0.935734
-2.30343
-5.42906
-0.000870971
-8.11138
7.89687
15.0769
22.3913
-34.4407
-35.4192
57.4011
-11.2369
-0.895362
-82.438
-1.61465
61.7161
39.6743
185.368
-35.8154
-1.5199
-33.7314
-11.0315
13.4549
23.777
24.4519
-4.67276
89.5938
-0.889503
-2.34968
40.3585
3.51964
-0.339305
-3.14731
-11.3213
2.23883
18.5319
-2.1511
291.813
-9.01053
20.3152
-6.66123
-1.21139
6.29266
-0.12696
5.00401
-7.25015
-86.6968
-70.6708
1.3307
-17.3449
1.16704
-12.2437
29.3078
5.55573
-47.7558
5.20522
28.2607
-3.51363
-3.83503
17.0451
-1.12713
-0.929463
37.4044
11.4306
-73.1224
-85.5366
4.32083
19.7515
-5.47877
-6.86371
8.52437
6.72425
-2.40686
-12.2346
179.712
-0.866482
-0.767459
19.9897
7.53928
154.032
6.26097
-0.766645
9.09863
6.411
-1.9148
-3.90835
2.94116
-8.46619
44.3158
59.96
17.2138
-4.66569
23.7024
26.1162
-0.9175
-1.05351
0.224892
325.383
-8.60754
-3.16149
1.80375
-2.0361
18.1375
-10.9352
5.88895
7.26493
298.238
-15.2823
-6.82865
94.9653
-15.2089
-10.266
2.88568
-38.6034
45.0246
-3.0985
-15.6949
95.3584
69.6614
-13.3554
31.6207
8.60629
-7.90798
11.0118
-175.977
-5.13885
41.7745
-0.873729
-12.8344
124.938
27.9102
3.31056
-1.39708
-49.4962
-3.47876
-0.715424
-0.0144439
75.2835
1.40523
27.9644
-342.689
51.5453
51.5453
-0.985404
-3.79583
61.7161
4.11705
16.2067
-21.1975
-0.324393
-27.7773
4.36969
8.17327
-31.115
18.6436
15.8
116.933
-1.34744
8.51968
-1.25796
1.89819
10.1161
-4.80815
3.46897
2.23883
34.5169
-6.64514
-0.0827824
109.67
-82.6194
143.07
20.6108
-0.912944
-3.48077
27.5173
-6.23177
-5.78374
-2.96955
63.0876
94.0663
52.5378
5.86627
9.19684
5.55573
-22.7323
-0.944012
-40.8268
-0.0732399
-2.82372
-4.89733
16.7756
-20.1298
14.0495
-77.7032
13.3839
1.36888
-7.31514
5.98363
-7.25022
-110.109
2.48437
36.4253
-2.40686
-35.0238
3.94314
5.56491
86.6277
-0.57555
-45.0973
79.5591
-33.7339
-5.45795
-77.1241
9.68234
-14.4343
-0.810458
54.0913
-1.70709
9.02321
18.4007
350.939
45.4642
-49.4112
-2.69309
-17.2646
-6.67573
-34.7089
-0.164576
-14.797
-49.2088
7.34179
-31.1391
-0.910506
-0.898964
-3.27574
-12.9569
8.65675
7.53194
-6.16493
-14.7402
-0.00752211
-0.68703
-11.968
-3.41064
5.21145
-3.12963
20.3627
-0.441573
-3.95335
47.8472
-64.912
-6.04836
-20.8279
-21.1864
2.15144
-3.98056
-17.7591
-3.30737
-4.4667
15.5141
-0.542096
8.3975
-0.0732399
7.17203
7.24843
10.3991
2.54333
2.73406
7.37059
-2.25476
-73.3876
3.78996
315.552
86.6277
25.2117
80.6754
-28.5534
65.9404
-1.68125
11.5834
43.3711
-8.91368
-0.361894
0.836518
-6.7358
-6.67573
-26.8087
147.225
-7.01235
-7.75986
0.0790347
5.72707
-0.0052568
3.87725
4.83311
-1.40901
58.3846
-3.77889
5.21145
6.13838
-0.897228
-3.48983
-85.0468
-63.2263
-56.6217
199.424
152.44
-3.75738
-2.22069
13.4216
11.0324
-9.36749
22.4974
-0.333042
15.7535
-9.91534
-25.4649
-4.36222
31.7955
-29.9891
48.8225
1.73492
34.6862
6.46667
-30.6955
0.168376
-0.599817
-0.361894
-0.908871
-9.95656
-3.64213
24.4339
-3.04756
-26.0891
10.2926
-0.547971
-4.05354
66.6466
-5.47877
2.85842
8.67575
-0.348584
191.487
28.4483
52.8258
1.69694
0.209709
-151.194
-32.779
1.56245
-3.7086
-21.9508
82.5975
8.67506
14.4655
-0.735278
110.962
1.80375
-3.50477
12.6121
-37.4182
-8.99454
-0.33409
0.00275745
-15.3828
-12.0081
156.774
-34.887
15.1975
11.5313
-34.51
-1.50477
15.7131
-20.1183
10.8247
-0.901438
41.7745
10.9736
-30.3831
4.50872
6.18315
-1.90658
-2.82908
-71.167
12.6771
-5.18362
3.99042
-165.214
-2.30727
-19.9751
20.8243
-89.6137
-3.85165
100.584
-1.56243
15.2137
17.954
-0.89741
-7.01235
-0.706999
-0.536982
-0.915678
47.205
1.3339
2.85842
-20.321
20.3627
-10.2297
9.22765
-0.00600277
6.59921
-23.2584
58.3566
17.9402
29.816
32.9394
0.472657
6.14369
-10.3952
15.858
0.639029
-2.5757
2.76501
2.16217
-1.2653
29.2281
-7.4234
24.7989
9.21543
-21.7065
-10.1772
-1.33019
-0.909318
-15.4505
6.83707
167.553
5.98363
2.79308
-0.897228
1.45695
-11.3682
-3.50477
0.847521
123.614
64.6118
1.59106
8.37173
39.102
30.0193
31.4379
5.8638
-2.6563
3.709
-15.168
-45.6192
18.8276
54.5903
-2.82176
0.00340476
62.2908
-38.5914
64.7741
240.681
14.4646
-2.8507
78.4904
161.416
7.77334
-36.4325
6.11467
182.307
-0.200081
-0.889496
0.312457
-35.3521
-0.282575
2.12284
10.9736
2.91045
18.4532
67.8851
15.4715
-0.940659
-5.52258
339.661
81.0818
-15.8694
-0.402071
-24.4963
-0.0512799
31.0641
3.15719
-24.9734
-16.3163
270.184
-0.903466
3.42636
19.6078
3.36832
-18.8771
114.553
-11.7173
-20.7627
9.57109
2.07894
-14.8322
-0.938826
-9.93428
39.6743
17.954
-28.4931
-2.861
-1.98766
15.5918
2.16127
80.1301
10.9229
-56.9481
-0.571291
0.902702
-7.06592
-5.52074
81.1796
-32.6955
-27.0173
0.931861
-2.70928
-12.4143
18.2262
113.622
-7.71242
18.5319
32.9394
-4.82284
107.395
-57.2719
10.1821
-14.1144
43.8316
-3.55354
28.7209
-9.42629
9.35024
92.8202
-11.8354
26.7742
13.1101
-17.0421
-35.9547
-0.685256
-47.7558
18.8136
-11.9741
-7.18743
-1.87655
3.05112
72.4501
6.10984
161.617
142.229
-5.59076
-3.00683
-5.67878
-75.0554
-2.74803
3.94859
-41.5488
52.5049
1.48082
-12.2346
-15.168
20.216
17.7659
94.0032
10.1741
-3.38055
46.9025
122.071
-0.691961
-22.6307
0.791637
-0.426602
-1.61702
-44.2455
24.1189
16.2025
43.8874
-2.19961
12.7244
-0.854544
-0.904941
-89.3948
-0.889641
4.50587
-0.751033
-120.146
5.56506
-69.8312
35.3703
48.8927
-11.8359
100.535
-28.6409
35.2545
8.12346
-1.78712
6.5227
-1.06951
-0.89486
28.242
-3.65811
-60.0229
-0.917519
-2.36514
-0.219156
-2.79453
-22.8242
-2.85947
-0.552164
-63.8321
-0.892739
72.2478
12.4287
-14.5839
6.13838
-2.05395
0.681396
-2.94813
94.9653
151.676
0.0297476
11.5245
-9.56125
-0.685256
-1.02109
5.99585
19.0119
26.8454
-0.892557
-29.2331
-1.62313
-6.04305
9.47514
-0.333042
2.70063
-0.058114
-0.719495
2.11912
-0.919534
-40.7968
14.2208
-0.878786
18.728
-0.57555
-4.9957
110.239
-101.135
-37.6016
-3.63578
-4.83379
24.3108
-0.449421
-0.908871
-1.6989
10.08
-34.7089
7.03885
-51.3732
84.2207
17.3896
64.9489
37.5855
1.35589
-0.248493
-0.604821
-0.949781
14.0468
-0.440369
-1.6989
-0.261454
-3.79241
16.9957
-69.1447
19.7072
2.98969
-0.898802
-5.42893
78.5854
-0.3743
-0.84751
-43.887
-10.3861
-25.711
23.388
-6.41109