/*--------------------------------*- C++ -*----------------------------------*\
| =========                 |                                                 |
| \\      /  F ield         | OpenFOAM: The Open Source CFD Toolbox           |
|  \\    /   O peration     | Version:  4.0                                   |
|   \\  /    A nd           | Web:      www.OpenFOAM.org                      |
|    \\/     M anipulation  |                                                 |
\*---------------------------------------------------------------------------*/
FoamFile
{
    version     2.0;
    format      ascii;
    class       volScalarField;
    location    "0";
    object      p;
}
// * * * * * * * * * * * * * * * * * * * * * * * * * * * * * * * * * * * * * //

dimensions      [0 2 -2 0 0 0 0];

internalField   nonuniform List<scalar> 
487909
(
-0.885793
-0.886652
-0.888295
-0.723176
-0.893306
-0.890463
-0.525492
-0.891951
-0.916348
-0.89031
-0.909048
-0.90185
-0.901225
-0.894875
-0.63406
-0.900937
-0.873182
-3.32048
-0.8881
-1.0805
-0.886505
-0.888531
-0.544462
-0.898879
-0.900014
-0.906128
-0.888466
-0.915003
-0.300135
-0.853091
-0.898361
-0.531212
-0.686208
-0.924024
-0.614413
-0.891358
-0.898086
-0.914511
-0.909556
-0.43539
-0.950504
-0.891202
-0.865021
-0.884584
-0.0281412
-0.770364
-0.860478
-1.0017
-0.926815
-0.842074
-0.864966
-0.930215
-0.0870163
-0.813302
-0.939876
-0.828814
-0.908056
-0.893414
-0.735278
-0.918959
-0.924662
-0.746233
-0.899322
-0.898819
-0.523676
-0.0908953
-0.903393
-0.752023
-0.854604
-0.102244
-0.0582477
-0.921269
-0.897742
-0.899161
-1.59729
-0.0602777
-0.45219
-0.884078
-0.874076
-0.444003
-0.903521
-1.6136
-0.865567
-0.0215735
-0.884295
-0.887972
-0.904077
-0.859729
-0.883091
-0.892047
-0.906693
-0.92253
-0.913136
-0.71116
-1.16278
-0.894892
-0.947955
-0.90533
-0.187173
-0.56207
-0.911511
-0.909093
-1.28579
-0.913241
-0.227998
-0.886607
-0.906077
-2.96065
-0.907106
-1.52841
-0.911832
-1.88069
-0.728096
-2.89295
-0.807094
-0.69489
-0.901392
-0.824459
-0.00185087
-4.65374e-05
-0.90357
-0.524395
-0.0960976
-0.91152
-0.107321
-0.795469
-0.858854
-0.940071
-0.944361
-2.44519
-0.887858
-0.947379
-0.896464
-0.731775
-3.07149
-0.982431
-0.84467
-0.534963
-0.669043
-0.558075
-1.37786
-0.808414
-0.799934
-0.902044
-0.916525
-0.4515
-0.896139
-0.176125
-0.901021
-0.904992
-0.0435787
-0.878786
-0.927269
-0.888921
-1.79934
-1.86216
-0.927368
-0.0886755
-1.44509
-1.17835
-0.866257
-0.988866
-0.908952
-1.47281e-05
-0.448163
-0.893006
-0.898893
-0.684341
-0.908915
-0.676991
-0.931785
-0.837153
-0.435387
-0.889198
-0.904185
-0.890649
-0.891922
-0.759993
-0.0279709
-0.895995
-0.778687
-0.881605
-0.180148
-1.01509
-0.0157127
-0.734518
-0.888748
-0.349796
-0.913464
-0.969142
0.362906
-0.954144
-2.70358
-0.909318
-0.875084
-0.250513
-0.926214
-0.74455
-0.899053
-1.38943
-0.012388
-0.921934
-0.541886
-0.787637
-1.12617
-0.930904
-0.26002
-0.907214
-4.81665
-2.48889
-0.842132
-0.885052
-0.925428
-0.917183
-0.860071
-0.874082
-0.880742
-4.34743
-1.71004
-3.71499
-0.883278
-0.946939
-0.886585
-0.931627
-0.868688
-0.911034
-0.909141
-1.04297
-0.910451
-0.914636
-0.848178
-0.897523
-0.90678
-0.118622
-0.910984
-0.902687
-0.448974
-0.212164
-0.667849
-0.0594809
-3.66451
-0.803649
-0.438304
-0.914609
-0.933072
-0.906243
-0.924339
-0.390738
-0.912912
-0.899657
-0.0175209
-0.944343
-0.950251
-0.923335
-0.864994
-3.18825
-0.102068
-0.0346349
-0.527693
-0.891977
-0.991053
-0.820047
-0.63622
-0.0128946
-0.91999
-0.913425
-0.87
-0.890984
-0.199699
-0.796028
-0.91471
-0.88791
-0.618912
-1.75937
-0.911386
-0.130019
-0.19304
-0.923188
-0.893538
-0.358722
0.078172
-0.446345
-0.918031
-0.909568
-1.31449
-1.77556
-0.88861
-0.875751
-0.908377
-0.928286
-2.5684
-0.0210313
-0.896443
-0.872013
-0.921507
-0.906806
-0.89288
-0.90613
-0.355099
-0.822255
-0.885582
-0.909833
-0.670045
-0.570786
-0.370375
-0.76386
-0.283794
-0.86508
-0.911649
-0.844679
-0.887004
-0.896026
-0.841206
-0.351391
-0.902067
-0.913677
-0.0240864
-0.94078
-0.886115
-0.468737
-0.917846
-2.1957
-0.657771
-0.344251
-0.917842
0.0435156
-0.979502
-0.0421873
-0.885009
-2.8378
61.9317
-0.927608
-0.89132
-0.915921
-2.83564
-0.0159802
-0.302035
-0.898365
-1.81409
-1.04108
194.089
-0.846848
-0.89324
-0.84299
-0.886443
-3.17773
-0.877737
-0.916442
0.250979
-0.664093
-1.59497
6.62372
-0.890579
-0.599817
-0.90603
-0.909174
-0.53461
-0.950471
-0.902438
-0.968303
-1.52951
-0.898858
20.802
-0.915043
-0.906165
-0.904531
-0.847091
-0.89337
-0.906379
0.257589
-0.943261
-0.122032
-0.912648
-0.925093
-0.845508
-0.560989
-0.811094
-0.0350845
-0.929108
-0.648821
-1.00564
-0.93406
-0.769695
-0.897488
-4.71218
-0.876958
-0.894176
-0.166982
-0.912377
-0.553972
-0.861668
-0.865151
-0.455181
-0.336649
-0.735895
-0.747728
-0.896703
-0.935833
-0.892396
-0.75502
-0.878575
-1.78719
-0.916562
-1.69616
-0.914951
-0.0409081
-0.879036
-2.16202
62.8335
-0.359184
-0.883269
-0.901676
-0.767742
-1.65657
-0.782735
-0.870849
-0.819818
-0.449471
71.7277
-0.75991
-0.765121
-1.06659
-0.92582
-0.621586
-0.52919
-0.895164
0.598414
-0.902117
-2.01296
5.0045
-0.870209
-0.927285
-0.922141
-0.181116
-0.927075
-0.899317
-0.911014
0.33314
-0.915379
-0.46406
4.96621
-0.798797
-0.549357
-0.944012
-0.286877
-0.934255
-0.846592
-0.0279056
-0.892299
-0.205416
-0.820076
1.21488
9.19684
-1.23878
-2.89344e-05
-0.892419
-0.915461
-0.437875
-0.899861
-0.898802
-2.42018
-0.868063
-0.62286
-0.975133
-0.104622
-0.880815
-0.957393
-0.917897
-0.262794
-0.884786
-0.900111
-0.920446
-0.0475024
-0.931718
-0.272762
-0.818349
-0.895231
-0.0838904
-0.932162
-0.755942
-0.965419
-0.916339
-0.876504
-0.892789
-1.11564
-0.0411719
-0.985297
-0.557517
-0.89161
-0.890974
-3.31381
-0.877834
-0.209989
-0.922368
-0.91261
-1.34427
-0.895238
-0.265042
-1.37289
-4.10523
-1.0175
-0.899969
-0.876703
-0.588451
-0.910684
-0.0404143
-0.908406
-0.0777602
0.312457
-0.000458017
-0.898059
-0.917987
0.0552953
-0.934401
-0.0150376
-0.94232
-0.909316
-1.43798
-0.385557
-1.12238
5.77462
-0.906552
-0.928078
-0.917327
-0.344221
-1.90881
-0.912799
-0.895538
-2.58848
-1.66595
-0.45336
80.1384
-0.755923
-0.899174
-0.876314
-0.609064
-0.896302
-4.11909
-2.35915
-0.874657
-1.86116
-1.76639
-0.452678
-3.67183
-0.397354
0.211507
-0.959414
-0.907149
-0.960535
-0.0798249
-0.920466
0.0110338
-0.859137
-0.907898
-0.915539
-0.452501
31.5267
-0.738292
-0.824813
73.1134
-0.902058
-0.923473
-0.582176
-0.810059
-0.905681
-0.00652459
-0.887097
-0.0380796
-0.810458
-0.461214
-0.885433
-0.8775
-1.00042
-0.315623
-0.260802
-0.591655
-0.916608
-0.144319
-0.923239
0.0406665
-3.28545
-0.897533
-0.616613
-0.834663
-0.736466
-0.918549
-0.447652
-0.363076
-0.472046
-0.867902
-0.784824
-0.417733
-0.552769
-0.763861
-0.986154
-0.482887
-0.880004
-0.877045
-0.895798
-3.51903
-0.0253418
-0.90854
-0.76735
-1.65478
-0.000448275
-0.65156
-0.443449
-0.0172595
-0.149774
-3.0688
-0.721441
-0.867367
0.926818
-0.947379
-8.57743e-05
-0.814723
-0.87313
-0.00489398
-0.694321
-0.0402352
-0.921622
-0.869486
-0.896896
-0.874905
-0.357762
104.609
-0.871524
-0.0724944
-0.922266
-0.871448
-0.072152
-0.900264
-0.848401
-2.24005
-1.29628
-1.74051
91.072
-0.943431
-0.900806
-0.0713948
-0.911487
-0.864373
-0.0919226
-0.259348
-0.96668
-1.88972
-0.290062
-2.67651
-2.64611
-1.05351
-0.912061
-0.863414
-0.891518
-0.0357134
-0.343257
-0.864099
-1.74642
-0.46005
-0.929394
-0.929223
-3.60895
-2.82121
-1.01461
-0.897271
60.0446
-0.459088
-0.02932
-0.652173
-0.354582
-0.830372
-0.906957
-0.770591
-0.691802
-0.578574
-2.17189
17.1196
19.8826
-0.0136973
61.4523
-4.48977
-0.89373
-0.955246
-0.967056
-0.828621
-0.919553
-1.65596
-0.885733
0.243128
-0.912584
-0.777036
-0.898389
-0.886582
-0.890795
-0.901636
-0.579338
-0.899307
-0.0728096
-0.529937
-0.897619
-0.896871
-4.03139
-0.669832
-0.13785
-0.0470368
-0.0104303
-0.911105
-1.03983
-0.89741
-0.899444
-0.0888023
-0.888876
-0.60479
-0.911574
-0.366359
-0.79051
-0.368555
-0.75762
-0.903314
-0.894741
-0.0810726
-0.45077
-0.903508
-0.97819
0.258667
-9.40786e-05
-0.901722
-0.895231
-0.0863872
-2.36119
0.00335522
-1.58122
-0.260778
1.56133
-1.65324
-3.70817e-05
-0.943106
-0.945712
-2.62587
-0.889528
-2.20576
-0.907632
-0.920898
-0.884171
-1.76276
0.295028
-18.4866
-0.679777
-0.530853
-0.898345
-1.2833
-3.09536
-0.61526
-1.49932
0.427915
0.237159
-3.89336
345.199
-0.331607
-0.918271
-0.440067
-1.06629
-0.0630274
-2.75963
-2.74603
-1.2269
-0.840085
-0.877525
-3.15481
-1.23561
-0.310109
103.701
-0.899237
-0.260961
-0.096093
-0.702589
-0.887397
-1.63135
-0.514289
-0.167282
-0.13427
-1.93559
-0.20854
-0.870902
-0.901896
104.622
-0.890131
-1.38444
-0.814743
-0.90025
-0.912259
-0.905597
-0.772077
-0.862525
-0.846991
0.0434819
4.14886
19.3407
-0.380162
102.411
-0.000273186
-0.932943
-0.878993
-0.734204
-0.901944
-0.0328582
-0.893591
-0.898427
-0.125192
-0.101514
-1.0693
60.879
7.5511
-2.401
-0.0150495
-2.1042
-1.6989
-0.892591
-0.887376
-0.892557
-0.941414
-0.434963
-0.614411
-0.919949
-1.88977
-0.917014
-0.0290488
-0.90287
-0.871597
-0.904435
-0.832243
-0.837457
-0.733219
-0.905415
-0.850087
-0.869236
-0.700897
0.00672697
-0.901764
-0.894168
-0.231028
0.0426869
-0.908574
-0.896157
-0.94386
-0.903206
-0.552164
-0.7517
-2.49809
-0.0240054
-0.881048
-0.944212
-0.912672
-0.881929
-0.918898
-0.700598
-2.7482
-2.93103
-0.916463
-0.915976
0.0644297
-0.542096
-0.907098
-0.681672
-2.56986
-2.25623
-2.87063
-1.54704
-1.54956
0.291445
-0.914722
-0.911867
-0.901722
-0.888234
-0.236732
-0.908784
-2.45787
-0.969151
-1.11108
-0.623709
-0.685744
-0.982189
-0.272117
-0.786208
-0.856528
-0.9121
-0.888537
-1.72894
-0.732037
-0.140317
-0.610882
-0.29452
-0.802229
324.047
-0.918497
-0.908569
-0.840881
-0.888239
0.0142742
-0.898846
-0.12485
-2.01678
-0.00195112
-0.908647
-5.80344
-1.81782
92.9807
118.168
-0.138507
-0.463241
-0.209943
-0.0214723
-0.929156
-0.883308
-0.0827824
-0.679932
-0.42834
-6.29265
25.4968
-0.961208
-0.942519
82.6138
-0.20187
-0.930397
-0.0376019
-0.775827
-0.897204
-0.723269
-0.823139
-0.0262392
-0.88345
-6.44758
196.617
19.6213
-0.61216
185.934
-9.52468e-05
-0.893927
-0.854926
-0.868614
-0.848576
-0.898989
-0.903012
-0.900403
-0.631238
-0.545324
-5.08444
-1.92731
6.17521
-0.888015
-0.00925781
-0.141001
-28.9896
-0.905227
-0.150327
-0.8844
-0.00251744
-0.048771
-0.53232
-0.874789
-0.899187
-0.899215
-0.0828032
1.45088e-06
79.1484
-6.32453
94.4455
8.50874
-0.996307
-10.1872
-0.60246
-0.886915
-0.0987394
-0.832859
-1.03425
0.173043
-0.696784
-0.45447
-0.937859
-0.1081
-0.770559
-0.915038
-0.897543
-0.922262
-0.0600971
-0.848668
-0.446208
-0.891788
-0.92057
-0.932634
0.454561
-0.90258
-0.915038
-0.8676
-2.29413
-0.923377
-0.896281
-0.830443
-0.885978
-0.0348443
-0.964597
-0.311838
-2.62387
-0.895292
-0.347768
-0.889496
-0.747362
-0.953849
-0.692063
-1.95464
0.0517158
-0.879023
-0.916883
-0.86685
-1.20688
-0.915031
-0.9175
-0.730933
-0.19741
-1.86055
-0.89778
-1.50374
0.202786
0.625567
-12.4485
-0.89856
-0.917519
-1.49236
-0.926493
-0.121261
-0.3332
-1.11636
-1.37887
-1.08403
28.6915
3.74337
-0.890755
-0.903355
-0.918849
-0.904035
-1.41544
-2.79106
-0.445765
-2.95364
-1.91379
-0.933412
158.811
-1.03523
-0.910506
-3.02552
-0.902114
-0.726911
-1.25455
-0.597757
-1.72548
-3.44056
-3.40957
-1.1174
0.135164
175.702
222.928
-0.427345
-0.846296
-0.81874
-0.0779581
-0.561112
-0.916902
-0.903686
-0.895743
-0.888547
-2.02922
1.70724
-0.504689
-0.0736285
107.773
-0.779534
-0.827105
-0.15748
-0.926427
-0.819095
-0.887526
-0.28531
-0.853576
-0.822101
-1.65571
70.5444
18.8136
-1.71185
103.669
-0.309745
-0.909016
-0.874614
-0.920065
-0.92226
-0.914519
-0.901624
-0.609416
-0.0205124
-0.0150599
-2.2643
-10.3231
16.7832
-1.77693
-0.00532084
-1.07138
-32.9236
-0.101342
-0.88668
-0.919289
-2.50641
-0.776183
-0.918167
-0.872425
-0.84329
-0.757648
-0.435258
-0.000410207
6.90018
-0.963781
112.773
-12.4951
-0.000361433
-35.3768
-0.0870512
-0.443643
-2.16629
-0.0724986
-0.917999
-0.922157
-0.445289
-0.79363
-0.719495
-1.03083
71.0307
-0.000258859
-2.31291
1.44628
-0.968057
72.4097
-1.01558
-0.0113487
-0.902648
-0.892739
-0.747264
-0.884236
-0.876193
-0.889722
-0.957694
-0.888753
-0.920012
-0.838451
-0.807467
-0.578456
-0.860399
-0.811289
-0.803419
-0.613736
-0.900774
-0.295402
-0.917754
-0.567656
1.49552
-0.921604
-0.53483
-2.26899
-0.613127
-0.91732
-0.859707
-0.871689
-0.894657
-3.02144
-0.900417
-1.3752
-0.449912
-0.76228
-0.353474
-0.920543
-0.835554
-0.871963
-0.0186767
-0.35813
-1.72352
-0.611238
-0.963538
-0.905109
-1.72564
-0.904824
-0.958687
-1.60694
-4.05008
-0.22658
-0.903997
-0.805724
-0.855354
0.784046
-3.32421e-05
-0.225204
-0.816233
-1.96687
-0.822745
-3.96014
-0.870501
-0.261617
-3.72467
0.337577
104.798
5.25775
-0.873729
-0.727506
-0.934246
-0.878187
-2.68292
-0.223576
-1.53603
-4.09692
-0.730969
-0.930753
-1.36991
-1.03888
-0.868949
-0.906647
-0.895362
-0.916823
-3.65699
-0.884182
-0.952865
-1.8853
0.148688
-1.27275
1.60631
-1.03357
66.7519
-0.89974
-0.0675733
-0.872197
-0.821985
-1.01331
-0.891878
-0.678349
-0.525443
-0.445516
-0.897744
21.2057
-0.50213
-0.55166
369.721
-0.863528
-0.953705
-0.85389
-0.687607
-0.44537
-0.882939
-0.940457
-0.839538
-0.91601
-0.0485405
59.4909
19.4292
-0.933692
-2.16362
25.1006
-0.925069
-0.872415
-0.910632
-0.918253
-0.897383
-0.877282
-0.893969
-0.262085
-0.134459
-0.902141
-1.42369
18.2841
-1.09005
-0.124946
-0.0740686
-21.9364
-0.773604
-0.698319
-0.916994
-0.537851
-2.078
-0.898767
-0.896153
-0.952356
-0.972162
-0.828468
-0.000286118
-1.558
-1.23097
137.529
-8.0161
4.56132e-05
0.387597
-0.900833
-0.93196
-0.676616
-1.39489
-0.911614
-0.914187
-2.01571
-0.77754
-0.706951
-0.0831947
1.064
-0.000151142
-0.664941
42.2798
-3.02633
96.2105
-21.5308
-3.63925
-0.704901
-0.961724
-1.51639
-0.28415
-0.678369
-0.914358
-0.888605
-0.0667563
-0.0406023
-0.668493
0.59649
-2.08151
-0.736539
46.7728
-0.0109927
122.888
3.0647
-2.26216
-2.33944
-0.952134
-0.882276
0.0872747
-0.881212
-0.116901
-0.896242
-0.811058
-0.880688
-0.119121
-1.6663
-0.906325
-0.252515
-0.229435
-0.878457
-2.12356
-0.911973
-0.439417
-0.910752
-0.0104589
-0.914146
0.0767519
-0.965756
-0.892186
-1.04151
-1.88864
-0.730403
-0.91295
-1.03355
-0.912118
-0.924204
-0.900104
-1.96854
-1.80425
-0.259099
-0.548649
-0.841001
-0.894718
-0.24117
-2.41572
-0.741279
-1.85887
-0.278032
-0.0238846
-0.900713
-0.36864
-0.352846
-0.897801
-0.46317
-0.868735
-0.599256
-0.921077
-0.694037
-0.870017
-1.76727
-1.13883
-0.69102
-0.857184
-0.8856
-0.954372
-0.907384
-0.864977
-0.644948
-0.84751
-2.86799
-0.930403
5.13706
-0.911178
-0.280084
-0.926785
-0.638356
-0.965457
-0.903807
-0.6206
-5.65047
-1.74775
-0.900714
-2.67883
-0.708187
-0.247607
-0.837276
-0.811901
-0.897575
-0.0217755
-0.895458
-0.609093
-5.88537
0.384147
-1.25259
0.124345
-0.00789305
68.1402
-0.905319
-0.445403
-0.238557
-0.928492
-0.900218
-0.891589
-0.911357
-0.894879
-0.894974
-0.893776
0.953743
-0.915034
-2.11609
-2.77211
-3.00886
-0.860765
-2.4134
-0.860098
-0.884642
-0.345948
-0.880239
-0.907803
-0.904681
-0.280449
0.000284923
20.2853
-1.02885
0.418365
24.9534
-0.90638
-0.896253
-0.891677
-0.77401
-0.918234
-0.904595
-0.868996
-1.81377
0.29851
-2.39303
-0.0446532
7.16985
0.522409
1.28451
-0.940526
-29.909
-0.607409
-0.888821
-0.0143416
-1.99056
-1.53956
-0.902912
-0.909305
-0.870284
-0.84508
-0.876046
-3.59644
-1.23399
0.00714387
339.26
-9.51102
0.000188611
20.3979
-0.917598
-0.956497
-1.67805
-1.92583
-0.938922
-0.892511
-1.69706
-0.350699
-0.25844
-0.442694
-1.72937
-0.0706619
-0.915487
60.2401
-0.805283
15.1275
-1.40103
-0.707717
-0.0379015
-0.875569
-1.93311
-0.673527
-1.18063
-0.878556
-1.07097
-2.6048
-2.83094
-0.897817
69.3583
-0.214249
-0.0411158
1.1957
0.17293
1.83974
3.91726
-2.02733
10.1376
-0.901438
-0.885927
-0.878816
-0.910291
-0.0761946
-0.897137
-1.87095
-7.0915
47.1573
-0.91224
-1.57747
3.39069e-05
-0.951982
21.7479
0.0472521
0.515225
0.000207677
32.7703
3.55514e-05
-10.8467
-0.889503
-0.898639
-0.875813
-0.640581
-0.846639
-0.903906
-0.900155
-0.900295
-1.29327
-0.877496
-0.897805
-0.338461
-0.904422
-1.54526
-0.895405
-0.78365
-0.169023
-1.50441
-0.920343
0.0428539
-0.676129
-0.33487
-0.891054
-0.262365
-1.65852
-0.893652
-0.985075
-0.906335
-0.905387
-0.79081
-0.901744
-0.332141
-0.857855
-0.0233621
-0.93323
-0.888012
-0.856995
-2.02574
-0.914122
-0.898866
-0.796168
-2.608
-0.791918
1.15228
-0.882899
-0.914866
-0.640915
-0.892839
-0.860441
-0.957551
-0.0280905
-0.969379
-0.894185
-2.24862
-0.902908
-0.902899
-0.894122
-0.0583882
-0.908843
-0.629992
-2.1423
-0.921078
-2.14181
-3.33818
154.352
-0.92238
-0.335022
-0.0950659
-0.887918
-0.71702
0.0453639
-3.41064
-0.990061
-1.9159
-0.920424
78.0855
2.18596e-07
-0.890386
-0.890941
-0.182957
-0.889014
-0.0439774
-0.446217
-0.97422
-1.53745
-4.41391
-0.806255
-0.925845
7.00754
-2.11424
-0.886411
-0.0295275
-0.906672
-1.52971
-0.899776
-1.07784
-0.546583
-0.857371
-0.836576
-0.90319
1.0756
-0.0352293
-0.0962053
-0.00547345
-0.889042
-0.70001
-1.12456
-0.909856
-0.894819
-0.800547
-0.881441
-0.900118
-0.884744
-1.44543
0.000155496
-0.865214
-1.53784
1.44184
24.024
-0.880082
-0.366672
-0.901715
-1.97188
-0.883424
-0.881668
-0.899043
-1.72465
-1.76188
-0.87821
1.20106
6.27783
-2.0239
1.06272
-0.000377106
-41.782
-0.900549
-0.801014
-2.12803
-0.0572409
-0.901899
-0.889204
-0.866554
-1.10808
-0.990655
-0.779426
0.186451
-1.92402
-1.81385
1.54593
0.105442
-0.000324608
21.7371
-0.724786
-0.0587335
-0.256845
-0.901149
-0.439846
-0.888038
-0.877456
-0.565119
-1.26965
-0.810334
-0.922242
-0.0510165
-0.912421
188.23
-1.49352
60.3421
-1.54613
-2.84801
-1.89761
-0.0593579
-0.675475
-0.896777
-2.38754
-0.954857
-0.176311
-0.110784
0.0377025
-0.66056
53.1446
98.6341
0.00255921
0.617025
-2.98099
166.75
-1.83874
-1.18805
-1.1512
-0.907962
-0.833544
-0.891645
-0.907751
-0.35417
-0.907928
-2.55363
6.9013e-05
6.53781e-05
-0.637673
-1.56173
1.56166e-05
-0.915576
20.9074
-2.60746
0.313747
3.25145e-06
22.3798
0.000643321
-11.7423
-0.0240659
-0.0753085
-0.889503
-0.799885
-0.743693
-0.00322957
-0.603981
-0.457579
-1.70214
-0.895068
18.0117
-0.0787022
-15.4483
-2.1962
-0.0569574
-0.388751
-0.289263
2.40605
-0.0379924
19.5286
-0.873031
-0.038515
-0.856576
-0.90991
-0.89017
-0.906659
-0.859958
-0.956797
-0.820668
-0.938826
-0.70763
-0.904205
-0.907576
-0.924809
-0.989912
-2.04361
-0.547971
-0.886314
-0.862379
-0.932256
-0.706198
-0.648965
-2.42031
-0.45317
-0.912047
-0.179918
-0.877269
-0.789598
-0.908871
-0.624167
-0.0412175
-2.04968
-1.27621
-0.913772
-0.879866
-0.74258
-0.235755
-0.850226
-0.0419155
-0.914585
-0.945881
1.66099
-0.325293
-0.884933
-0.838967
-0.685599
-0.889196
-0.894446
-0.899717
-1.22826
-0.38543
-0.384205
-0.902756
-0.550169
-0.805105
-0.883346
-0.898403
-1.58137
-0.464196
-0.801272
1.4197
56.1725
34.7744
-0.898124
-0.812304
-0.896851
-0.164675
-0.880084
-0.908822
-0.910976
-1.53608
-0.826175
-0.442434
24.3445
-0.000279058
-0.903201
-0.900498
-0.267658
-0.888106
-0.895673
-0.896115
-0.917877
-0.867702
-1.8825
-1.69851
-0.854021
193.285
15.412
-0.648529
-0.210822
-0.133699
-0.834227
-0.884758
-0.818955
-1.59628
-0.903606
-0.909295
-0.423933
0.519345
-0.023197
-0.977377
-2.95671
-0.891918
-0.944168
-0.878702
-0.639501
-0.84776
-1.07502
-0.761796
-0.856826
-0.840652
-1.75239
-0.0539527
-18.707
-1.75951
0.505696
22.9341
-0.435744
-0.89127
-0.755812
-1.96725
-0.817897
-0.343934
-0.924747
-0.857253
-0.828292
-0.37129
0.509692
17.4555
-2.65226
0.959651
-0.000144208
-56.4826
-0.655569
-0.96886
-2.11306
-0.342662
-0.907237
-0.914151
-0.350616
-0.129215
-0.0979033
-0.915997
-1.37013
-0.122843
-2.42303
117.571
-4.87848
-0.000211368
85.9537
-0.905127
-0.343558
-0.327893
-0.887019
-0.890557
-1.33132
-0.873939
-2.42638
-2.71877
-0.0746098
0.182234
-0.138339
-0.921486
-2.08591
-6.00549
13.4342
1.44466
-1.74205
-0.910723
-0.301962
-0.91877
-0.186307
-0.334175
-1.10671
-0.799915
-0.0254863
-0.0287981
-0.989557
51.0184
0.0882445
-1.9596
-0.154662
-4.45555
197.808
-4.50175
-0.9017
9.30606
-0.909865
-0.20406
-0.750405
-0.896421
-0.895343
-0.860162
-0.0732399
2.48021e-05
6.99996e-05
-0.629415
-0.248318
31.0349
-0.299748
21.3569
0.0988057
1.16343
-0.82558
147.53
-1.87757
-14.0401
-1.72254
-0.89153
-0.903811
-0.234228
-0.887056
-0.835889
-0.667297
-0.558215
-0.0268879
-0.915157
15.9629
0.296973
-10.7218
-0.88308
-2.86689
11.3836
-0.939559
0.836775
-3.22432
20.0197
-0.21253
-0.871657
-0.885954
-1.01615
-0.90501
-4.18921e-05
0.517332
306.969
-1.12841
0.146536
0.039986
1.48082
-0.173109
0.46192
-6.83084
-0.00329362
16.78
7.29633
-0.217266
-0.90747
-0.741107
-0.901259
-0.830862
-0.906033
-0.778519
-0.92743
-1.00334
-0.912309
-0.907642
-0.911981
-0.912111
-0.876613
-0.631566
-0.902598
-0.90691
-0.914394
-0.879152
-0.854544
-0.905711
-0.449421
-0.863301
-0.952207
-0.203978
-0.918404
-0.786561
-0.443804
-0.901285
-0.901421
-0.878318
-1.2835
-0.919401
-0.87781
-0.646905
-0.137543
-0.293615
-0.332849
-0.897886
-0.115881
0.905563
-0.896122
-0.452465
-0.890892
-0.897097
-0.887997
-0.938442
-1.86229
-2.16834
-0.546226
1.01455
-0.892064
-1.01776
-0.835038
-0.904251
-0.885546
-1.52627
-4.76821
-0.0632278
-0.535397
70.9032
3.44187
-0.911268
-0.900052
-0.9069
-0.939982
-0.896606
-0.908231
-4.33217
-1.85655
-0.530446
-0.890154
18.5865
-0.00017257
-0.747127
-0.263236
-0.946171
-1.09562
-0.678454
-0.933081
-4.13119
-0.691392
-0.00143565
-0.916036
-0.863443
40.1596
74.4673
-0.851154
-1.34769
-1.03648
-0.907008
-0.910157
-0.933418
-1.12994
-0.928153
-0.934286
-0.739408
-0.119544
-0.0145518
-0.92416
-88.3518
-0.90595
-0.454449
-0.624179
-0.909096
-0.444975
-0.91207
-0.919743
-0.915891
-0.920387
-0.918318
-3.17809
-23.574
-0.937166
-0.935055
-1.9644
-0.895799
-0.603413
-0.913894
-0.551292
-0.428192
-0.98255
-0.154958
-0.836401
-0.778532
-0.894268
0.874461
22.2556
-0.684726
41.1637
-2.66476e-05
-34.1341
-0.961766
-0.874076
-0.693114
-0.904233
-0.928411
-1.03396
-0.15096
-0.749873
-0.916868
-0.9003
91.2882
-3.72618
-1.53516
64.1491
-1.56748
-0.000196975
66.9427
-0.565031
-0.902164
-0.802191
-0.361894
-0.886105
-0.161151
-0.865901
-0.0394061
-0.0243815
0.0969088
-0.346205
1.37268
-0.668986
86.9813
-1.74883
188.956
14.3016
-0.89827
-0.886066
-0.676981
-0.543041
-0.888792
-0.0224024
-2.01863
-0.793411
-0.795399
-0.744662
-0.918703
-3.52733
4.58092
-0.900991
-0.285943
-2.29758
-1.8353
-5.69988
-0.860801
0.817382
-0.727722
-0.330227
-0.899141
-0.887245
-0.907936
-0.917778
-0.906929
-0.905305
-0.907865
-0.179653
-1.67112
-1.70141
-0.0496743
22.0736
-2.02974
-2.16521
-0.794011
-0.721639
2.05982
-15.2697
-0.95997
-0.906451
-0.89491
-0.892031
-0.900878
-0.919872
-0.981503
-0.998783
-2.84102
-0.424548
18.4333
-2.37067
-14.6577
-1.50369
0.00035501
46.2564
-0.0151505
-0.0112536
-0.744804
18.5954
-0.94918
-0.898157
-0.457252
-0.18473
35.5823
-0.0110381
46.1639
76.7765
-1.7732
1.28729
-0.905983
-1.28893
-0.686542
-0.992729
-24.0161
7.3192
10.4859
147.843
18.1492
-47.3688
-0.908497
-0.902214
-0.865865
-0.265373
-5.37499
-0.000448392
-0.87591
-2.03893
97.1717
-0.855712
-3.22354
-0.923364
14.0189
-4.15247
-0.0142519
-2.24988
161.664
-5.73997
-0.182667
-11.6714
-0.877131
-0.905234
-0.0444851
-0.910502
-0.928653
-0.228044
-0.0847312
-0.0482434
-0.00134479
-0.899255
-0.918114
-0.924072
-0.0860044
-0.758669
-0.918189
-0.0278454
-1.3161
-0.0356745
-0.869283
-0.926137
-0.0187649
-0.222392
-0.914494
-0.904922
-3.16149
-0.200081
-0.900032
-0.0342391
0.278093
-1.06632
-0.891808
-2.50222
-0.0104925
-0.443141
-0.353338
-0.90368
-0.974553
-0.909048
-0.804185
-0.630862
-0.321737
-0.015909
-1.7515
-1.79261
1.49815
-0.737539
-0.920201
-0.872444
-0.546084
-0.200804
-0.15453
-0.0193633
-0.905156
-2.81977
54.4756
4.56906
-0.921935
-0.0717549
-0.745136
-1.06982
-0.898144
-0.911483
-0.693727
-1.64034
-3.63453
0.184555
-5.97193
92.5731
-0.87568
-1.18096
-1.06816
-0.776402
-0.905412
-0.849089
-0.917213
-0.920169
-1.99468
-1.58611
-0.925663
46.5594
-0.533086
-0.974053
-0.0302507
-0.874575
-0.926245
-0.227464
-0.464071
-0.879414
-0.12872
-0.103995
-1.83253
-0.167096
-0.000228675
-3.56029
-96.655
-0.856829
-0.859916
-0.923248
-0.906672
-0.861759
-0.912919
-0.89486
-0.122674
-0.101875
-1.63277
84.2787
-19.3011
-3.37363
-0.919771
-0.544466
-0.886914
-0.915528
-0.912381
-0.0242256
-0.821432
-0.978115
-0.832474
-0.815941
-0.922404
-0.799305
-0.573357
26.7058
-0.00747359
13.619
-8.38087e-05
-46.2158
-0.806196
-0.928532
-0.29673
-0.917169
-0.949981
-1.03778
-0.718302
-0.743564
-0.914824
-0.862651
0.409019
-0.9362
-2.09832
1.76739
-0.231746
-0.000212277
2.64911
-0.920149
-0.911562
-0.91931
-0.173732
-0.692914
-0.685256
-0.927523
-0.918908
-0.949809
-1.80345
-1.65635
1.184
-0.959193
73.2556
-0.911112
307.784
14.7456
-0.727567
-0.887698
-2.85256
-0.278496
-0.872937
-0.0222149
-1.50712
-0.44583
-0.919534
-0.919733
-0.699189
-0.465
5.0033
-0.532461
-0.935734
-0.867253
0.45604
-6.27822
-0.538605
0.532352
-0.333042
-0.828915
-0.845549
-0.261693
-0.5468
-0.930946
-0.00220755
0.631084
-4.25413
-1.05527
-0.915286
0.444231
-0.912624
21.4934
-0.569627
0.937576
-3.71226
111.815
-2.63821
-14.0732
-0.798582
-0.645347
-0.747523
-1.06994
-0.924565
-0.29175
-0.915678
-0.920232
-0.14175
-0.645499
18.6425
-0.0170014
1.58793
-0.296343
-5.66839
-1.23158
-0.00918048
0.0265523
10.4186
17.9606
-1.12663
-0.908032
-0.824661
-0.797077
50.4641
-2.5047
90.0854
97.3607
-0.924217
-1.04438
-0.89998
-5.25363
-0.0396842
-1.5848
9.27369
70.379
-0.901048
7.08969
17.1465
-33.9901
-0.734191
-0.891822
-0.921504
-0.27247
-2.72385
137.485
-0.350984
-1.02789
53.7051
-0.851501
-4.93451
-0.85179
15.0036
2.42741
-0.00899347
-3.14488
106.317
-1.26207
-0.0565103
-14.9829
-0.901497
-0.217206
-0.848979
-0.930709
-0.720588
-0.68668
-0.901102
-3.87223
20.4312
21.6998
-0.923673
-1.5725
-1.20094
80.7028
65.772
-11.0671
-2.80521
327.775
0.221485
-5.49456
-0.743587
-0.203087
-0.196313
-0.181763
-0.741498
-0.918184
-0.450371
-0.574623
-0.161612
-0.849912
-0.149181
-0.774076
-0.199168
-0.816384
-0.337157
-1.61431
-0.959081
-0.662016
-0.891297
-0.00509062
-0.55941
-0.913573
-1.13519
-0.909536
-0.870542
-1.031
-0.903886
-2.84232
-1.40912
-0.805016
-0.831821
-0.861882
-0.736642
-0.901823
-0.843468
-0.904265
-3.49389
-0.990383
-3.60955
0.700022
-0.900285
-0.93106
-0.241434
-0.3572
-0.89852
0.385149
-3.09768
-0.232231
-4.30705
-0.902018
5.85264
-0.912147
-0.436357
-0.556682
-0.873654
-0.908432
-0.449916
-1.80638
-1.51838
-2.57473
-1.31095
57.4553
54.2033
-0.932059
-0.85837
-0.885924
-0.858889
-0.892776
-0.90867
0.25963
-0.895159
1.67349
-1.55715
-0.500337
49.1727
-0.751613
-0.894084
-0.856341
-0.0377477
-0.931839
-0.604821
-0.46323
-0.921712
-0.766673
-0.619571
-0.0723101
36.1413
-0.000126948
0.443473
-88.2735
-0.605544
-0.111647
-0.924273
-0.780765
-0.0504782
-0.947995
-0.271151
-0.651265
-0.555974
-1.53911
26.3955
19.0917
-0.0052568
-0.594479
-0.215973
-0.922581
-0.96205
-0.0138162
0.00969654
-0.0496724
-0.980207
-0.878756
-0.867485
-0.77785
-0.912009
-0.926999
19.9808
0.208207
151.639
-0.0056468
-2.02964
-0.900575
-0.899404
0.230657
-0.771281
-0.898123
-0.338726
-0.0267455
-0.336919
-0.237516
-0.810842
67.165
74.312
83.4638
0.477941
3.54602
359.627
-11.2168
-10.849
36.7789
-0.896633
37.2795
35.4961
-1.89374
1.67712
-2.15316
-0.0029182
-0.359812
-0.00612203
99.5469
-1.94245
-0.0720509
79.0877
-0.887019
-0.634339
-0.892363
-0.986864
-1.91753
-1.15978
-0.900889
-0.00976949
-0.0116474
-0.790441
2.11865
-1.8511
-2.0335
-4.27827
36.6002
21.0111
-20.2448
-19.2734
-6.14132
-5.29804
1.19552
119.684
10.4228
36.9022
-38.5428
-24.641
32.5029
-0.0502406
110.647
41.4386
-2.21167
-5.35778
-2.48863
10.7883
12.4897
-0.740233
-0.904268
-0.904495
-0.941544
-0.858594
-0.87336
-0.931213
-1.91239
-0.895808
-0.897072
-0.0768777
13.456
-2.87247
-9.09319
9.12802
-13.3627
-16.2165
100.444
-14.2006
16.0376
-11.9058
80.174
-1.77983
-0.932191
-4.80516
-4.79099
-2.76659
-0.571277
-2.40675
-1.362
-0.928173
-0.437014
-2.52353
-0.900943
-0.0536976
-0.89914
-0.902689
-0.219144
-0.810072
-0.903199
-3.72267
0.804174
-2.70066
-1.49311
1.39618
19.9117
-1.7376
-4.72922
-3.6312
-0.90767
42.4052
-0.978977
-2.69119
21.072
-1.45824
-0.717246
-4.33532
304.597
-5.05437
1.07447
-1.01085
-0.444504
-0.899463
-0.837886
-0.276436
-0.898781
-0.915738
-0.920215
-0.0231693
-1.98539
18.6005
-1.34324
-3.8352
0.623466
1.0127
-3.65089
87.7572
-0.00527486
-2.44537
-1.5133
-2.9735
-0.88025
-0.287386
-1.07434
-0.0336035
-3.8586e-05
-2.64664
91.5642
73.6123
-0.900907
-1.76211
-0.902095
-47.6828
0.0954528
58.2207
-0.457695
85.8054
72.025
-1.0437
17.2756
-53.1341
-0.867122
-0.464364
-0.214385
-0.917098
4.65091
351.551
-0.434422
0.368934
5.37734
-0.787625
-7.23594
-0.911324
14.2365
46.6137
-0.00523511
-0.329046
25.0381
-0.312502
-1.64898
-15.1256
-0.910448
-0.857291
3.7818
-3.80092
-0.90244
0.142343
-0.839485
305.828
-24.0043
21.3576
-0.0536004
-1.29111
1.95008
17.979
6.83512
-9.91065
-1.74741
335.66
-2.41531
-7.17037
-0.973627
-1.44892e-06
-1.53319
-2.34055
8.04332e-06
-0.89918
-0.165448
-1.11654
7.51074
-2.59369
341.598
-1.11795
3.29058
39.7335
-1.01406
-1.58753
1.78282
-5.4323
-10.8802
-0.00391139
-1.00713
-0.872897
-0.253545
-0.44609
-0.887648
-0.900086
-3.27373
-0.365923
-0.699695
-1.01782
-0.873281
-0.279575
-0.89998
-2.95144
-2.29897
-0.921407
-0.916285
-0.903672
-0.964344
-0.852162
-0.877433
-1.89458
-0.542376
-0.861718
-0.890095
-0.86217
-0.922338
-0.837465
-1.03816
-0.0370317
-2.2688
-0.534731
-0.830565
-0.621349
-0.958444
-0.0554184
-0.874033
-0.976096
-0.663577
-0.905794
-2.83848
-0.908426
-6.06202
-0.000282255
4.21083
-0.926944
-0.077687
-1.03541
-0.0606892
-0.184803
-0.950429
-3.86812
-0.914273
-6.19245
-1.13114
-9.29212e-05
48.8225
-0.877374
-0.0706721
-0.0674938
-0.0701373
-0.909052
-1.04916
0.703829
-0.904666
-5.83521
0.458266
-0.905678
-3.24902
-1.56899
-0.167398
-0.902378
-0.129686
-0.0796913
-0.882942
-0.634686
0.419216
-0.869681
-0.859416
-0.885497
143.07
-5.73864e-05
-0.15443
-1.30169
-0.714444
-0.905303
-0.128853
-2.04862
-0.82437
-0.190207
-0.916479
-0.019814
-0.839869
-1.8904
-13.3606
19.1897
-1.51696
-0.934865
-1.92228
-0.912492
-0.894386
-1.68685
-0.897496
-0.544018
-0.748666
-0.893852
-0.896904
-0.890629
-0.944091
-0.796565
-0.908252
-2.94813
81.9722
23.0267
1.31608
-0.111217
-0.817246
-0.907056
-0.351185
-0.922362
-0.705814
-0.040839
-2.45423
-2.37389
-0.928072
185.299
-1.25603