/*--------------------------------*- C++ -*----------------------------------*\
| =========                 |                                                 |
| \\      /  F ield         | OpenFOAM: The Open Source CFD Toolbox           |
|  \\    /   O peration     | Version:  5.0                                   |
|   \\  /    A nd           | Web:      www.OpenFOAM.org                      |
|    \\/     M anipulation  |                                                 |
\*---------------------------------------------------------------------------*/
FoamFile
{
    version     2.0;
    format      ascii;
    class       volScalarField;
    location    "0";
    object      p;
}
// * * * * * * * * * * * * * * * * * * * * * * * * * * * * * * * * * * * * * //

dimensions      [0 2 -2 0 0 0 0];

internalField   nonuniform List<scalar> 
487909
(
-0.885793
-0.886652
-0.893306
-0.448163
-0.886505
-0.898879
-0.397354
-0.901944
-0.616613
-0.885582
-0.878575
-1.69616
-0.775827
-0.899322
1.45088e-06
-0.89373
-0.52919
-55.8485
-0.927075
-0.928153
-0.888295
-0.865021
-0.000151142
-0.549357
-0.229435
-0.427345
-0.0328582
-1.09551
-2.1042
-0.14175
-0.925069
7.5511
-1.42369
-0.953849
18.6425
-0.888531
-0.92582
-0.779426
-0.919949
0.00255921
-0.345948
-0.898819
-3.66451
-0.899161
-15.1256
1.0756
-0.0582477
-0.881441
-0.857184
-0.857291
-0.876504
-0.909856
-1.94518
-0.912173
-0.954372
-0.896633
-1.78719
-0.734204
1.01455
-3.72467
-1.34769
-0.384205
-0.944012
-0.921622
-1.23878
-2.4447
-0.778519
-0.820076
-0.90691
2.40605
87.6901
-0.681672
-0.876613
-0.349796
6.9561
19.5286
-5.90217
-0.916348
-0.0157127
-0.2406
-0.570786
5.69602
-0.187173
-9.78135
-0.950504
-0.746233
-0.872937
-1.6136
-0.747523
-0.727722
-1.88977
-0.311838
-0.850087
-4.54138
-0.573357
-0.837457
-0.949981
-0.961766
0.131599
-0.50213
-0.928532
-0.0380796
-0.0512799
-0.693114
-0.0315314
-0.915003
-0.905681
-3.18794
-0.828621
-3.23148
-0.932162
-34.8977
306.969
-36.4673
-2.72385
24.3445
-1.65596
-0.42834
-2.65325
-7.27538
-0.765121
-0.798797
87.7572
-0.868063
46.6137
-0.55941
0.337577
-0.921077
-4.09692
-15.2525
-0.891951
-2.68292
-0.904992
-0.350984
164.008
-0.446217
-0.896139
6.17521
-0.0568379
53.7051
-1.88133
-2.16202
-0.545324
-0.911034
-0.0779581
-1.30968e-05
-0.915976
-0.0543662
-0.0960976
-0.886585
-1.58753
-0.89491
-0.916902
-0.676616
-3.37069
3.22906
-0.889204
3.29058
12.1352
-0.839869
-0.900878
-0.933081
0.0204483
-70.5978
-0.00111435
-0.932943
-0.614411
9.45609
-0.908574
-0.886752
-3.86812
-0.865567
-0.0787022
-0.913136
-1.04297
-0.888466
-0.892047
-1.66595
-5.4323
-0.914636
0.517332
-0.912799
3.0647
-93.1144
-0.00391139
-40.0837
-0.860478
46.7728
-0.65156
-0.904681
-1.69191
-0.525443
-13.5742
-0.876703
-0.76735
-0.899987
-0.241434
0.000284923
-0.900549
22.1207
-2.02602
-0.938442
-0.848942
-0.918031
-0.034536
-0.89852
21.4934
-0.904531
-10.0781
7.97471
-0.227998
-0.63406
-0.902756
0.051811
98.3082
-0.889503
-4.71218
-48.7612
82.4513
117.132
-0.723176
-0.261617
-1.01509
-0.916823
-5.91983
-0.0139892
-0.62286
0.874461
-0.0475024
-0.0172595
-0.879036
-0.884786
-0.209943
-0.969855
-3.0688
-0.524395
118.168
60.3421
-1.31449
-3.38373
0.392979
0.598414
-0.912421
-0.446208
-0.805105
-0.88861
-0.890941
-3.1441
-0.786208
-0.922262
-8.54352
-0.0796913
-0.898403
-0.896122
-0.877737
-5.3589
-0.727567
-0.906664
-1.01461
1.07619
-0.634686
4.65091
-18.4866
65.1571
-0.928022
-1.11564
-0.924024
-0.330227
-0.632121
-0.0706178
-0.603413
-1.2269
-51.2474
-22.4061
-0.899499
-1.45824
0.46192
-0.883761
-0.894892
3.80364
-5.84468
-0.901896
-0.890023
-1.6701
-1.8511
-11.6319
-0.544462
-0.903521
-0.810059
-0.921078
-70.2889
293.779
-0.896157
-0.734191
-0.881929
-0.92057
-0.770364
-0.881048
137.529
57.3096
0.454561
-0.899969
-0.000286118
-0.00017257
60.0446
81.1579
191.913
-0.898427
-0.530446
-0.841001
-0.887245
-0.02932
-0.824459
10.3823
-0.910632
-1.80425
-0.00777659
-0.908241
-0.917778
-0.959193
-0.895231
-4.60681
-3.8352
10.0747
-2.95364
118.249
-0.0268649
-0.0182825
-0.0724986
-0.000133479
194.31
-2.25623
-1.65657
-0.913573
1.14151
-0.96599
-5.25363
-0.876193
12.9041
-0.888191
-2.40547
-0.988866
-0.944361
-3.15786
-0.818349
-28.7102
-0.796028
-2.26899
97.1591
91.0382
-5.49165
0.979796
-0.909048
-1.92402
-0.931718
-0.883308
1.8237
-0.795399
-0.963538
73.7847
-6.86129
-0.912421
17.999
-3.09536
-0.916562
-2.42018
-0.631238
-0.911511
-0.946939
-3.68485
-3.65699
-1.11795
-0.0675733
-0.24117
-0.895164
-1.03357
1.20106
43.9828
-0.741279
-0.272117
-1.72465
0.631084
-0.933412
-0.902076
5.61674
-0.0908953
-0.5468
3.25145e-06
-0.909536
-1.03523
-0.265042
-0.0421873
-0.0962053
20.9074
96.8545
-1.01129
-1.031
-0.920215
-0.88668
4.07238
-1.53914
6.74941
-0.445403
-7.27417
-0.262646
152.086
-1.18063
12.1959
348.785
369.721
-0.0870163
-0.914273
-0.899209
-3.12172
-1.53319
-0.0761946
7.49931
-1.24729
9.67812
-1.76639
0.312457
1.9474
-2.7482
117.317
-1.05351
-0.640581
-22.902
-0.675819
1.68355
31.7955
-0.853091
-1.01776
-0.918898
0.387597
-0.875123
-0.161612
-0.891054
4.97291
-0.441797
0.785725
54.3035
-0.719495
0.146536
-0.907008
-8.0161
-0.946171
-1.03655
283.885
-2.608
0.0675521
-0.883868
11.1896
-0.448944
-5.42861
-0.498658
-0.891202
0.0426869
-0.736539
-0.965419
-0.90854
0.14489
-2.14181
-0.909967
-0.990061
0.000643321
-0.893591
-0.71702
-0.137543
-1.31112
-0.0240659
-0.872415
-0.919401
17.2756
-0.928492
306.499
-1.89312
-0.934255
85.8054
-3.17809
-1.13114
-0.891589
-1.11108
-0.89741
-1.00334
-0.915891
65.9623
-6.47493
48.8225
-0.904185
-1.92583
-1.96555e-05
-0.89031
0.848809
-0.913772
-0.268322
6.72248
-0.925428
22.9341
-1.12555
18.0814
-1.53745
-0.922141
-1.68125
7.01564
-0.881646
0.0502186
-2.11306
-60.6708
-0.935936
0.726072
-0.20187
-0.140317
58.734
-1.01331
101.706
-0.3332
-0.890557
-3.60054
-20.7287
-0.66612
-9.45479
-0.359184
-1.50712
-0.872197
1.06272
-27.7263
-0.905794
-1.10671
-14.8419
-4.11738
18.2741
-120.079
-0.897817
-0.107321
-0.924565
6.27783
-0.915286
36.4898
-20.0165
-0.860162
7.53194
-0.939431
-0.893701
1.97936
-20.957
21.6956
-1.10808
-0.895292
-4.25413
-11.7423
-0.890386
-33.7391
-0.887056
-0.0572409
-0.901899
1.26073
73.903
-0.91224
-24.2813
-3.09137
-1.06659
-0.895362
-0.0510165
-0.542096
-0.897543
15.606
-0.909093
1.19511
-1.88069
-0.937166
-0.523676
-0.907106
-0.927523
7.10869
-1.9644
-0.0352293
-0.173732
-0.22864
-0.74258
112.466
2.04186
-0.0290488
-0.913506
-2.5047
-0.567716
-0.850226
-0.933692
103.669
-0.00747359
-0.824661
-0.0128946
-4.38089
37.2081
-0.915539
-0.423933
2.17292
-0.300135
-0.991053
-0.676981
13.304
0.515444
-0.552769
-0.000448392
-1.59456
-1.12122
-1.12841
-2.401
11.4054
-2.12717
13.8486
-0.795759
-0.928653
0.49297
-0.895826
-7.81716
-0.706951
-0.134459
-5.17754
78.0855
312.983
-0.837276
-0.904922
-3.81194
151.574
-22.3702
18.2193
-0.926815
-2.44537
-1.9159
-0.897886
161.55
-0.894227
-1.7515
-16.1788
-0.595099
-2.03079
-10.1383
-0.817897
-0.910684
-0.329046
-0.293615
-0.464364
-1.30398
-0.797658
-0.911483
6.1588
-1.49248
11.9608
-2.21326
-0.428831
-0.956902
-2.16834
-0.870017
-53.1341
-0.935055
-0.901392
-0.928006
-0.533086
-0.897097
-0.887997
10.9154
20.5496
-0.129215
-0.89914
11.0177
74.4673
112.761
-23.574
0.508286
1.184
-0.909577
-4.65374e-05
0.368934
5.37734
-8.17686
11.0673
-57.837
68.7336
-50.9685
0.667557
-0.878993
-2.1423
-1.85655
-0.897744
-1.96854
-0.453097
-0.916339
4.94393
-0.877834
97.3607
-0.286877
-0.89161
-0.444504
-0.913425
-1.04438
-0.92743
-5.05437
-0.907496
-0.888792
-0.890984
4.18255
5.25775
-5.54108
-1.74741
-0.0880004
-2.01863
-0.857371
-0.888821
-0.808414
17.979
-0.259348
-0.921904
-0.923618
185.934
46.1639
104.622
62.8335
-0.911487
-0.196313
32.3888
19.72
-0.832859
-0.0723101
-19.0639
9.54702
-0.91152
-0.921269
-6.52722
65.1164
-2.44368e-05
6.66604
-0.215973
1.32739
-7.67065
-51.2962
-0.866554
-0.894819
-13.3133
-0.807094
63.0329
-0.706198
0.230657
10.2984
12.6928
75.8847
44.5864
-2.01296
-3.10296
-0.728096
-1.80345
-11.9736
-0.703032
35.4961
0.139847
20.3468
62.8833
7.36163
-3.22354
-0.9121
57.2573
-0.918908
-4.73135e-05
-1.22608
-13.162
-0.0116474
-1.48432
-2.97124
3.85618
173.806
-0.808145
-0.00342482
-2.85256
-2.1962
-1.8769
-0.924217
-0.895238
21.9132
-0.0502406
307.784
14.7456
-4.01656
-0.809402
-0.899255
-0.949876
13.4967
-0.798582
6.12783
90.0854
-0.87
-0.915738
-0.906165
-4.10523
-0.983313
-0.446803
0.0567922
-11.6795
-31.6575
0.351851
-32.6586
-7.0694
-0.0950659
-0.900937
-0.91999
-0.0224024
228.081
-0.897488
-1.98539
9.27369
70.379
-13.8981
7.68832
-44.3204
44.4245
-2.27715
-40.904
-0.239739
-0.924662
-0.890463
-0.261693
-0.889014
-0.915576
18.8902
-0.907098
-12.912
-0.901722
-2.41531
-0.917014
0.291445
-0.908915
-1.88972
-0.973627
26.7058
-0.893006
-0.26002
-0.741498
-2.67651
-2.11611
-0.884295
-0.787637
-0.289109
111.803
-0.450371
-0.901259
-0.888106
-0.906552
-2.71182
-12.4485
-13.0419
-0.903283
-0.28415
-0.858889
-0.613127
-1.0017
-1.50374
-0.621349
-76.0271
4.45763
-0.892186
-0.817246
139.053
0.815265
-0.588451
1.21488
1.2615
1.04162
11.6359
-0.798205
16.8425
-3.77541
0.000836669
-0.880847
-1.86229
-0.631566
1.9185
-0.91261
3.75992
-0.865901
-0.897002
-3.50354
-1.25002
-0.761963
11.7443
-0.101514
-0.734518
-0.209989
-0.276436
-6.75992
-7.60051
72.2478
-0.841203
-0.0210607
-0.558215
2.85242
-0.605544
-0.897383
-2.35402
-0.899463
70.5644
2.81411
-2.15137
-2.30697
0.0297476
-0.910907
-1.82323
-3.66499
11.5375
-104.068
1.0127
-0.684726
9.93229
-7.17037
-0.969151
-3.17773
-1.06143
18.6005
-1.34324
-0.0140706
24.5174
-0.0496724
-0.789967
24.4833
-0.911324
-1.02519
335.66
-0.290062
-0.889198
0.295028
-0.685744
79.2106
-0.851605
10.3603
-15.7446
-16.6176
-60.3728
11.2611
-5.85793
-0.906077
-0.614413
-0.96668
-0.918184
-0.885052
-2.74603
-0.891922
-0.89918
-0.165448
-96.0952
-3.58526
-33.9108
-0.191668
-0.529155
-0.538278
-2.82533
-0.911562
-6.83084
-0.181763
-3.46968
-1.24659
-0.870902
-0.860071
-0.891518
-0.0357134
-2.63821
-3.4178
31.4483
-2.44466
30.4793
-3.68774
-8.99087
63.7497
4.96621
-0.900014
-0.457695
-0.90501
-0.919743
0.000213724
21.2057
0.523028
-0.940457
13.9375
104.798
-0.687607
-0.960535
-0.917519
37.2351
-1.37786
0.211507
-0.447652
-0.0554184
-0.926493
-10.2526
-0.104622
-0.834663
-0.988358
-19.7079
-0.976096
-0.84467
-0.998783
-0.00195112
-1.51602
-5.65047
1.73492
0.585264
-0.256845
-0.934865
-0.846639
-0.902117
-0.965457
-0.925301
59.9502
-53.3385
-0.907751
-0.904773
-0.905109
-42.6405
-0.856528
-0.733219
-0.900398
78.4354
27.0233
-0.0175209
-24.1876
3.18616
-8.55925
-6.96951
-0.887698
-0.29673
-5.85864e-05
-0.908784
-0.904827
21.6998
-0.91448
157.145
-3.49036e-05
18.976
-11.6907
-0.752023
-0.00652459
-0.888234
-0.837153
10.6702
0.580381
-34.0242
6.539
10.2481
-0.874575
30.4298
-0.040839
-0.889042
58.2186
-0.676991
-2.48889
-3.37432
11.0046
107.504
2.7975
-12.2625
-0.122674
-85.7489
5.78816
-12.1352
-0.898964
-0.921504
-0.907214
86.3105
19.4292
-0.901722
-0.0235444
-0.759993
-0.0279709
19.9574
-1.96898
-2.17836
9.75771
-1.98747
-0.830137
-0.893485
316.567
-1.49236
-0.907898
-2.16629
25.1006
-0.874082
-0.880742
-133.53
-13.8011
-7.85698
-2.35949
58.0968
-2.10316
-0.985297
-0.782735
-0.89856
-0.874033
-0.417733
-0.884236
31.5267
-20.3091
3.58496e-05
-44.7033
-7.23643
42.3091
17.3965
20.6004
-0.298743
-56.9072
-4.33532
-2.44519
-0.958444
-0.709176
179.733
-0.53483
-0.986154
-1.08403
28.6915
-0.787625
4.80132
1.2597
-0.811875
-44.4186
-11.0957
1.02715
57.0915
108.258
-1.81385
4.19074
-31.0701
-0.247607
-0.611238
181.812
-6.06202
-0.000282255
-0.154958
4.59776
6.60711
7.00878
28.6493
-0.0309452
-30.9574
-2.8074
-0.152143
-0.434963
-0.914951
-2.11829
-0.525492
-0.908032
-0.873182
-0.0439774
-0.894875
-0.0295275
-0.000590073
-0.0215735
7.00754
-0.0262392
-0.900714
-0.946654
5.77462
-0.897204
8.50874
-0.904854
-0.708187
-12.8113
-0.903206
79.1484
-25.0402
-0.969123
-0.904312
-0.909316
-0.232231
-0.898767
-17.5058
-0.989912
-1.38436
-8.7623
70.9032
-0.813044
-1.33132
-0.125192
-0.904205
-4.68765
132.728
-1.38437
-0.0145518
-2.22359
-0.262365
35.5157
-0.918253
-0.223576
-1.69685
-4.36541
110.438
-0.072152
79.8942
-0.791918
1.80652
-16.134
0.623466
-0.176125
10.4256
-0.0485405
1.75123
-0.877433
107.841
1.43956
-0.751216
5.25494
-8.58348
-0.0279056
-5.08444
-0.839538
0.0110338
-0.901631
-1.00641
36.383
-6.51148
6.96117
-2.21167
-2.79304
-2.84797
-0.907642
-0.931627
-0.0798249
-0.867902
-1.13241
-0.979502
0.230033
1.60125
-0.182461
9.12802
-7.54703
-9.57447
76.2032
-0.881605
39.7335
-0.363076
-0.799892
-0.546583
-0.101342
-0.0320032
-0.738292
-0.824813
-0.900943
-8.79319
0.224892
-2.22361
19.7382
-0.000525033
-219.615
-0.933774
-2.67883
-0.61216
-0.673527
-0.90319
-0.482887
-0.880004
-2.4214
-14.7203
17.9061
-0.0404944
-6.3575
-26.2573
-1.54704
-0.813302
-1.74775
-0.445924
-0.0987394
-0.910291
-0.893927
2.78906
-1.88303
-3.57299
94.9653
15.8241
-0.872818
-3.53336
8.69246
1.126
-1.47281e-05
-0.000458017
-0.894788
70.1742
-5.14943
-0.875813
0.173043
-0.0217755
-0.895458
70.7764
-5.47877
2.16127
-1.61702
31.4361
165.792
-6.10495
-225.785
-0.921934
-0.835038
39.5181
0.31396
-0.932256
-0.33487
-19.0566
-1.03673
-8.64398e-06
-0.901048
-6.19785
-18.5466
-3.71499
4.29126
10.1242
-0.550034
-0.68703
17.8427
-0.00036385
-0.910157
-0.856369
-1.7487
-0.000281843
-0.796168
-2.42031
15.45
-0.0690457
-0.911386
210.312
11.8454
-0.898316
0.0639399
0.0884587
8.07296
18.4532
333.654
1.27851
-0.870501
-0.884584
45.1401
-0.906128
1.95008
-0.891358
-4.18921e-05
-0.686208
-0.00329362
19.8916
-0.975133
-0.173109
96.2105
-0.547971
6.00116
-2.01678
-0.664941
-0.439417
-0.241492
-0.862379
-2.21799
-0.952865
-0.878457
-0.90614
-4.03041
-1.74109
-0.888239
-0.859416
-0.901715
-0.920833
-0.565031
116.881
53.3474
-0.935734
-1.38438
-3.16149
-0.903393
-1.56748
26.7437
-1.52951
126.329
1.58793
-0.015846
-0.799915
-26.1756
-0.00547345
-0.906693
-0.0014694
-1.0805
20.802
-0.879023
-0.930733
-0.0732399
-7.41285
12.458
-1.66433
-0.895538
-3.32048
-0.899776
-0.93406
-0.91909
-1.23416
-0.835889
-12.9935
-0.962856
17.8341
-0.871597
-0.0109927
-0.906672
196.617
3.77957
-0.109957
-0.921148
-2.53102
69.2654
-0.343652
-1.97333
31.8711
-8.38087e-05
-1.65478
-0.88345
-0.60246
-0.183876
-1.03983
-0.918343
-2.21877
13.7254
0.101156
14.4849
-0.00891836
20.7852
-0.923473
-1.22296
-0.996307
-7.15546
-0.741107
-1.67805
-0.456315
-0.854926
-0.868614
-0.896445
-11.2593
-0.907424
-17.6301
3.69073
198.84
0.078172
58.3477
-0.886314
-1.51639
0.505696
-0.906033
-0.696784
-0.45447
1.75233
-6.41
27.5256
-2.62026
11.2207
-37.4791
-0.953705
-0.181116
-2.04361
26.5117
-0.965756
-0.96886
-0.914358
-4.99186
-4.20615
63.8154
0.0209801
2.24991
107.395
0.439713
-0.911538
-132.324
-3.67183
-0.610882
-0.450764
37.1725
-5.56254
-0.887019
-1.88864
-0.45317
-0.912047
-1.51637
-0.0053348
2.90052
-1.30038
17.2113
5.86627
-1.89066
15.9404
-0.897533
-0.44583
-1.59825
17.7963
-0.161151
-0.334175
161.85
21.6856
-0.642087
-1.11654
-3.91571
-2.92327
-3.51903
0.557969
-45.7012
6.35114
-5.25735
-1.54944e-05
-0.0937644
-0.29175
317.12
-0.898858
-3.62631
-0.895343
-0.0243815
-42.8174
-12.8325
-0.343257
-44.8205
8.68298
153.537
-9.5186
-2.7418
-209.919
9.18634
108.955
5.53015
-0.557517
-0.347768
-0.8881
-1.00564
-2.69434
-0.56207
-0.0190274
1.4784
8.65208
-0.816384
-13.3627
-124.294
0.384147
-1.4157
-0.857433
13.4791
1.18936
-32.7435
-2.58421
-2.45475
-0.621586
-0.541886
-0.0409081
-0.911607
-0.870849
-0.90357
-0.767742
-0.887858
-0.647079
-0.94386
-0.940071
1.54593
-0.802191
0.640269
-2.078
0.186451
-1.83874
55.6883
-0.886105
-0.870022
154.352
0.617025
-0.933072
2.51656
1.9075
-0.773604
-0.87106
-0.443804
-0.803649
-0.930709
-0.846848
-4.83752
-2.64664
-0.00462216
-0.771281
-0.846592
-0.901497
-66.837
-0.907632
-0.84299
-3.80092
-39.3424
-1.79261
-0.638878
-0.912309
-0.900111
-65.9657
-0.909556
-0.884171
-0.864977
17.9573
-0.693727
-0.84048
178.156
-0.778687
-0.138507
-0.898086
-0.217266
-0.0630274
-0.0784071
-2.89958
-0.974053
90.4334
-6.96852
44.4113
-0.727506
188.23
16.78
-0.704901
-1.93559
133.393
-0.324393
-0.912919
7.30315
-0.859016
-15.4863
31.6413
-0.902044
-0.0600971
-21.5308
-0.914146
7.63081
-1.71185
20.1993
-0.339305
-0.469924
8.60629
-0.958687
11.8768
5.23361
-0.903012
334.238
-0.910752
-2.62146
-0.982431
-0.909295
0.104695
-0.888605
-0.0667563
-0.64759
-3.65839
4.28119e-05
2.19004
-5.33507
-0.90185
-3.60895
-0.7338
-0.361894
-0.0587335
-5.37499
-0.669043
-0.730403
-0.91295
7.37059
37.922
-16.476
-2.5037
-11.9763
29.2205
-0.806255
-0.0150495
-0.902164
-7.69036
-0.891645
-0.910502
-0.439846
3.2809
169.468
-0.895995
-1.12005
-34.7089
11.8585
-6.78766
-5.64076
-17.3401
-0.0376019
-0.902141
51.1423
-0.924681
-0.899657
-0.914494
-0.907928
0.0969088
-0.346205
-4.34743
-1.4049
5.56506
-54.767
-15.8455
117.329
0.981967
-26.9673
-0.0828032
-1.5133
-0.796838
-0.89324
20.4312
-0.015909
-0.950251
5.79911
69.3528
-3.63578
-0.919291
-47.519
-0.770559
0.0582041
4.42853
86.6277
8.15954
-75.856
0.266738
25.0381
194.089
-0.920898
-3.53083
-0.898144
-1.5725
-7.7195
-3.16154
3.74337
19.9984
66.4966
-3.98056
0.744499
80.4148
8.1949
-4.18534
-0.822205
-3.81767
-1.54956
-1.76727
-0.914511
-1.06629
11.5351
-0.755942
-2.67734
0.28466
-1.53407
4.21083
-0.000201317
123.257
-0.789598
216.277
10.9871
-44.0263
-64.7165
1.61617
-0.906487
-1.21885
0.209498
7.29633
-0.43539
-9.40786e-05
-6.29265
-1.4288
-0.023197
-0.977377
3.44111
-0.926605
-97.0026
-0.959662
8.47043
-2.3379
-86.6359
-26.6288
1.80713
-0.181317
58.7357
5.98363
-0.0281412
-10.5381
-0.939876
-1.0175
-0.930215
-0.898059
-0.924339
-0.884182
-0.0777602
-0.904251
-0.68668
-0.912912
-0.366672
-0.892064
-0.933418
-27.0565
-3.87223
-0.444003
-0.913241
-1.03648
-0.357762
-43.4334
26.678
-1.53784
-1.10955
-0.000212277
-0.869486
-2.29897
-0.903508
9.63659
-0.911132
246.508
-0.886145
-0.90287
-0.279575
116.092
-0.000361433
0.258667
-0.91616
-0.942854
-1.89374
-6.98543
13.619
-0.944212
-0.917846
71.7277
-0.0870512
-0.038515
-0.903867
-0.790441
15.0466
-89.9902
-0.902058
-1.558
-0.819818
-0.731775
-0.892739
5.23429
-2.15891
110.647
11.8188
26.2451
-2.98288
-0.904077
-0.890154
-0.947379
21.7371
1.49552
-0.86508
-0.873461
-2.87247
-0.916848
-31.2177
-221.265
-7.09966
-0.917327
-0.259099
0.105442
-0.907962
-0.918959
-0.607409
-0.932364
-0.558075
5.77348
3.21591
-0.985075
1.59071
-50.8763
0.59649
-6.81807
-1.18805
-0.390738
-0.94232
-0.0110381
71.141
-0.888038
-0.877456
-32.9656
5.00388
-14.228
-2.48501
1.36258
-0.898361
-2.79106
-0.906243
-0.901102
-0.535397
-0.619571
-0.385557
-2.55363
6.9013e-05
-5.23904
-32.2626
-1.41281
71.5173
-2.31844
-35.8044
0.039986
-0.897742
-0.720588
-0.567996
-0.119544
-0.594479
-0.911268
-0.923335
-0.864994
73.1134
-11.7224
9.45382
-1.06484
71.4741
-7.90798
-1.00448e-05
1.064
-0.800547
-21.9718
-37.1114
-0.871448
-0.899404
-88.3518
-1.20094
80.7028
-0.877045
-32.5893
-57.3356
-2.0376
20.3135
-3.93372
-4.78224
-11.3759
-0.252515
-3.19958
-45.8065
-0.97819
-0.852162
37.2795
-0.848401
2.02253
-2.2642
-1.51021
1.34796
-0.894299
-0.924204
-9.9054
-0.927414
21.3303
-4.79393
26.3467
-0.208788
1.88413
-0.45077
-35.3768
-50.8573
-0.00976949
-0.542376
-0.909116
-7.67457
-0.609093
20.5719
-34.5505
-8.94094
-63.1866
-2.38607
-4.70352
-3.78196
-0.925093
-6.34597
-0.85389
-0.0569574
-0.449471
-0.902648
0.0435156
0.0644297
-0.00337974
11.6259
-5.85113
4.73635
20.1556
-81.2326
86.9813
46.2244
142.442
-156.606
-0.000103874
-34.2921
-48.7585
70.8177
-0.915488
-0.896464
-0.75991
-32.9236
-1.39489
-0.885009
-1.7732
1.28729
-0.955337
-0.903543
-1.43105
-0.901953
-2.62008
-0.13451
3.20971
-5.82828
-0.922175
-10.5007
0.453927
1.89135
-0.000324608
-3.07149
-1.93311
-4.13119
-0.912944
-0.484748
51.3452
0.00794503
24.3108
6.62267
29.837
-10.5724
341.598
-71.3063
5.73948
-0.830065
18.4328
6.1246
-2.09978
-0.901311
-0.982189
-0.927285
-0.29452
-0.871524
-3.33818
-0.732037
-0.919534
-0.916285
-0.922266
-0.786561
-0.0222149
-0.915678
-0.355746
-0.964344
-0.898802
-0.892789
-1.06994
-0.889496
-0.657771
-0.00084243
-0.863301
5.36819
21.072
-2.62387
-0.3743
-1.77693
-0.917842
-0.909318
-0.882648
-0.912072
-0.873729
-0.922215
-222.69
-0.707717
-1.07138
1.0619
-0.897228
13.1383
-0.908386
-0.799934
66.7519
-4.03139
-0.893414
-0.875569
-0.928411
-1.29991
97.951
-1.60228
2.85182
-0.898989
-1.76188
-0.828814
-0.934401
-0.885927
-0.350338
5.96653
-0.247803
20.513
27.581
-2.69928
-0.957393
-0.930946
-0.917987
-4.76821
-0.889503
0.243128
-3.22491
-7.30958
-2.64385
-0.926601
94.3134
-9.64054
-5.80344
-2.60746
-0.885546
-0.934286
-0.46406
-0.267658
14.4249
-1.12238
-40.0572
-0.891014
-0.989557
-2.69248
55.8289
-0.810334
5.34822
-1.12994
-0.0724944
-0.840881
-0.885924
100.834
-0.900052
-0.9069
-0.444462
-1.17448
-0.706999
0.00638861
-2.877
-0.883269
68.1402
104.609
-0.903672
-0.532461
-0.111217
-0.898846
-0.90595
-0.454449
-0.0280371
-2.87502
-14.1144
-0.878203
-4.05008
10.9299
-0.795469
9.19684
-0.921407
16.5639
-0.0170014
-0.922672
0.45604
-2.24005
-1.29628
-0.848576
-80.7091
4.07341
-0.907099
2.06071
14.5114
-32.1317
-0.990655
-0.902598
-6.79401e-05
-0.344251
0.0517158
-1.00577
-5.66839
-0.861718
-0.890095
-0.937859
237.348
-13.3197
-0.448561
11.147
-4.41238
-0.905873
-81.5156
98.6341
-0.888748
-2.1957
-0.00532084
-0.922625
0.316283
-0.86685
-0.496762
-0.887296
-0.462232
112.131
11.3913
-1.56173
292.738
-0.623376
-1.36191
-11.8629
-0.90603
-0.901225
-1.26282
16.7832
-0.0379015
-1.57009
-3.13856
-2.63712
-2.8378
61.9317
-0.179918
-1.9714
-17.6578
-0.0346349
279.168
24.4208
0.172108
4.23782
0.427915
10.0908
-0.925845
41.1637
-0.908056
-0.901438
-0.911105
-0.445516
-3.15552
-0.881596
-0.561512
-2.43817
132.902
0.110746
-2.80521
1.63311
-0.966757
3.11863
232.174
-1.33139
-54.477
4.14063
-1.0317
0.0552953
-0.735278
-0.956497
-0.801014
-0.899444
-0.90867
0.25963
-10.5457
-33.323
-0.360348
7.60016
-6.94627
17.7883
-5.38908
-3.61396
-0.907242
55.8661
7.20147
80.6486
-1.52627
-0.0150376
-1.75951
-0.569627
-25.329
-2.34968
-4.85799
-131.951
-4.42284
-0.0707565
-0.900089
72.3169
98.3354
1.33677
16.1737
9.2497
13.8471
-8.37125
11.466
-44.8767
-0.0632278
-0.655569
-0.799885
-1.92228
5.78931
0.377412
-0.350699
10.0092
54.2629
1.56133
0.204673
-0.918849
-63.9605
87.6335
-2.33069
-4.09962
-14.2345
-3.27273
-0.567191
-1.85786
-1.28579
-0.262085
-2.9735
-0.0100838
-1.95464
-0.231746
-0.00527486
-0.312502
-2.0014
-0.475474
-0.231028
-2.56986
-0.00523511
-1.13883
-0.13785
132.675
0.409019
-13.0967
-0.866257
-0.694037
-0.798292
0.000188611
-0.0104303
-0.315623
-11.7408
0.461819
-0.887972
-2.28622
-3.56208
-1.75239
-0.917598
2.98174
-0.939086
-32.4669
9.61042
-0.928078
0.0453639
-0.28531
0.33314
-18.707
-4.93451
0.187953
39.9259
-1.93837
19.0177
-0.668493
-0.87781
-0.899317
-0.918497
-56.4826
-0.685609
-0.648638
-0.904378
7.54065
26.2279
91.5123
-0.7517
72.025
-0.802229
-0.465
-0.343558
-0.895743
-1.98667
7.48927
72.2444
51.5657
-5.01161
-4.46259
-0.952356
-0.920387
-0.919733
-0.645499
-0.941414
-0.981503
-0.795788
-0.12485
92.4598
5.05456
-0.920201
42.9183
0.475107
-0.908231
-0.880291
-0.920232
-0.692063
-21.9364
-1.51696
-0.894748
-6.27822
-0.538605
-8.38377
-43.0698
-87.9581
-15.7554
-24.5377
-0.842074
-2.04968
-0.747362
-0.908597
-3.8586e-05
-0.667772
-0.916994
-1.23158
-0.00918048
36.4773
22.7525
-11.0874
0.000549346
-0.905387
-0.00101873
-0.0404143
-0.905415
-0.957929
64.3654
3.7818
-0.883669
73.6123
-1.20688
-0.915031
-0.0406023
-7.36226
2.91045
0.010839
20.8496
-31.107
8.30083
-0.546226
-0.917169
7.058
-0.0470368
-0.907384
-0.170481
0.142343
-0.949781
-0.919738
-1.03355
-11.6971
4.33168
-2.51274
-18.6758
-5.10248
101.582
-19.9164
-0.851154
-0.887097
-0.669832
20.3979
177.158
-0.195512
-0.84751
-0.91407
-0.000922544
-4.82142
-6.5644
34.8078
-0.444975
3.77211
-0.133221
-1.42933
-13.0593
-3.70817e-05
-0.531212
-4.2997
-9.51102
-0.0539527
-10.9647
-1.70483
-0.00611518
-0.0888023
-0.888876
1.37268
-0.119366
-18.466
-0.943431
-0.892839
-0.84163
2.18238
-11.8682
-0.000258859
11.0039
1.48082
-0.27247
-0.911014
-0.000144208
18.8136
-0.182957
-5.45626
0.000122543
0.000534279
13.1731
-0.297926
-90.5613
-0.837465
112.033
-0.00752211
11.8221
-2.10416
22.1453
0.224792
8.52367
-0.803749
324.047
-0.915379
-0.903606
-0.452465
-0.309745
-0.912492
-0.894386
42.385
-0.247521
-6.16493
-0.551128
-9.95656
-0.948084
0.557652
-0.00165358
-2.14758
-0.907948
12.0936
90.6404
-0.699189
-0.908569
-0.265373
351.551
0.33291
162.083
40.082
-11.3682
-0.0352834
72.4803
-0.915921
-6.64011
99.7628
2.26288
-27.7081
-119.34
-0.00299548
1.94401
38.5601
83.201
5.0033
-0.0444851
-0.913894
0.368117
-0.176483
-3.60687
-2.95671
-0.891183
99.5835
-0.84329
-8.03577
-1.25259
-70.975
-11.8855
-0.732049
99.3117
-2.91471
-0.89795
-5.978
2.42998
-0.222392
-3.6932
0.177284
-0.921243
-3.15481
-1.75906
0.0406665
-59.7678
-4.94335
-29.0553
-0.91195
21.0111
-13.2304
9.11886
4.65097
-47.5672
-17.9288
-6.45597
7.58991
-46.3425
-2.69119
-4.35425
0.132615
-4.2241
-0.95903
-0.906647
-0.55166
303.315
-0.388751
-0.822101
-10.7514
-1.86216
1.14026
-1.86116
-15.4483
0.468947
-0.884758
70.5444
-0.150327
-0.937997
5.60648
-0.880815
23.1427
-0.909833
-0.908497
-1.59628
-0.897523
-4.47605
31.9076
1.15228
-0.908647
-1.52841
-0.0446532
-0.887376
-0.865865
-0.872897
-0.172878
-0.221693
-70.143
-106.339
-1.26965
-0.692914
-1.6989
-0.124946
-0.905234
0.00138829
-5.35028
-2.60365
-3.22692
-2.9208
-12.04
0.148688
-0.917641
18.2841
-1.07434
-0.0187649
-1.02885
-5.59327
2.37001
-4.68143
40.6741
-15.396
-5.77111
-0.883424
-0.797077
-0.88025
-0.910448
-0.874076
-3.09768
54.5722
-0.537851
-13.2092
-2.00653
-0.0029182
184.975
81.6312
-0.828915
-0.820047
-1.64898
-0.8856
-0.865214
-5.56844
-30.1856
-0.900907
-1.76211
-3.38364
-14.4039
-22.3351
-2.85496
-20.5456
5.0045
-0.89827
-0.69102
-0.902154
4.85179
-0.813288
24.024
-0.839485
305.828
-0.909074
-1.48709
-1.96073
-0.84138
0.0882445
-0.837584
-0.888537
-1.53603
91.9172
-7.46646
0.00519768
-1.9959
-0.057329
-2.86799
-0.930403
-0.565119
-0.914866
-14.1013
-12.5953
19.1901
-23.0661
-5.28122
-0.278496
-0.901021
-2.36514
-1.65571
-0.873031
74.1698
3.51859
-0.912421
-0.798664
6.53781e-05
20.1046
-1.15442
21.0803
-0.725539
-20.8845
20.1403
-52.9802
4.08344
202.029
-0.90025
9.46838
-5.22458
11.8185
3.19814
-43.7959
44.02
-56.4189
-1.1079
-49.4044
-7.59825
324.616
10.6655
-0.645347
-1.92731
-0.853576
-0.818955
9.38159
35.3369
-0.90991
-0.373911
-3.86461
-3.18825
-43.2462
203.086
18.7596
-0.321817
159.991
-12.8587
22.4475
10.6742
10.4939
18.0494
30.4263
0.241027
196.753
2.58615
-0.978783
16.0126
116.727
17.9606
61.7012
6.49689
4.33156
4.09282
-8.85443
32.2981
38.232
-0.435258
-0.901676
-0.868688
-0.834227
-0.902214
-0.283794
-1.12997
38.267
-0.909016
-0.874614
65.772
7.03738
5.21626
10.0218
-1.85829
-11.2146
-0.908958
23.2214
-8.05638
-188.373
4.79125
1.16554
31.3293
-0.19741
-6.63159
32.2855
141.864
31.0349
7.04011
1.84716
0.899676
-0.0411158
1.10761
-0.858854
-1.01406
-0.892591
-0.877131
-29.909
-0.00185087
-0.844679
1.12256
27.469
9.91723
12.9557
-2.45452
8.11842e-06
2.48316
-20.1042
28.7639
-0.906557
173.418
-2.48851
-9.3446
24.6453
6.16907
-7.62208
-8.2
20.1496
1.96951
6.67329
-209.307
-1.09005
-0.892557
35.5823
73.2556
-0.0143416
-0.914212
-0.912893
-1.32555
-11.2421
-2.42201
-0.00011619
58.1437
215.374
-14.0297
-8.47282
-4.31756
-4.30694
-6.83604
41.4316
28.242
-0.287386
-0.0740686
-0.766673
-1.56202e-05
-1.20206
18.871
59.372
2.91622
-0.897512
-7.92308
-0.366359
74.6769
5.35632
-6.97475
-2.33032
-119.566
-44.8282
-3.28284
7.78601
6.53352
-0.0336035
-0.0052568
-0.0396842
-0.113508
-9.11253
-35.3521
-0.905983
7.35361
5.06205
-0.442694
317.261
-0.908871
282.606
-6.50508
43.5878
-10.7218
-21.0168
333.569
68.2954
2.12284
-0.900575
-0.91471
-2.97985
-19.6858
-0.888753
-27.1562
-0.899187
43.5005
-6.07903
-2.72968
-0.479612
2.77669
-1.92347
-6.26172
-5.01938
-67.5193
-0.901431
-7.43836
-2.27687
-27.2938
-0.744662
2.5796
-6.86371
-12.1144
-2.24121
-0.212164
31.9265
-2.45423
18.8659
-12.0272
-0.0696076
10.6631
-3.69031
-79.9085
-0.923802
-0.920362
-13.3813
33.1902
-8.95638
3.65676
-0.97422
-0.928288
-2.66476e-05
0.522409
-0.76386
-0.609064
4.77207
82.6138
22.2556
-0.860967
-0.898157
-0.940526
-0.881212
-12.1381
-46.4714
-0.552164
-1.02109
-0.955246
-0.604821
-0.18473
-0.867367
-4.71953
-0.915293
2.48021e-05
-0.896153
-0.890974
-0.826175
-0.45219
-0.921712
1.81571
-5.16645
8.34653
-0.667297
22.4724
-0.896606
1.07447
-1.59729
-1.44543
19.0917
-0.908377
0.209196
-0.92489
-2.04601
-94.7951
-10.8586
-0.335022
-3.68875
-0.900118
115.48
-2.02964
-0.464196
-1.78569
-0.929463
-66.8329
9.9669
-1.30954
-24.1355
-0.901421
6.83512
55.6296
40.9204
-0.899861
-0.869681
9.76504
-0.880082
14.2388
19.8218
-0.786693
40.7684
73.9866
0.0954528
-0.864373
-0.726033
-0.0379924
-0.449421
-2.89346
5.33431
-1.54912
-0.745231
-0.927224
-12.6556
-8.16629
18.2528
86.19
-1.0693
-0.743587
-0.289263
8.28185
-2.70358
0.180291
-0.203978
-9.04409
-0.889641
-25.3466
-7.31517
-9.58368
-0.0318
-0.546084
-4.78138
-0.877282
-0.92253
5.12554
-0.370375
2.57045
11.3841
-0.250513
-0.89017
-0.906659
-0.939982
-0.629415
-0.0454091
4.74458
28.5528
-4.2661
-0.894621
-3.65089
-2.58848
-0.670045
1.28451
-0.904233
179.953
-0.0393481
-18.4419
43.8476
-0.624179
-1.70667
7.62041
-8.85875
26.2482
120.445
26.612
1.65729
6.14524
0.836518
-0.894657
-9.87029
-1.4716
-26.4535
-3.259
-17.7964
6.86233
-2.31633
-26.8971
8.34582
-2.37359
-20.3865
4.44287
14.2365
122.888
7.16985
-0.457252
-1.65618
-0.000155056
-0.15096
-0.887004
-0.896026
-1.74051
9.68983
3.74611e-05
16.4353
-4.9621
-0.0268879
43.4168
42.4561
10.9407
30.6077
-50.77
-0.0536004
-20.0301
-29.2778
20.5893
-3.95335
-36.8438
9.58216
-6.45285
-0.0706619
-0.864966
-0.000448275
-0.94918
-0.46323
-0.885733
-8.15554
-3.19611
-1.99056
-1.53956
-0.86217
78.3692
4.11732
73.6684
67.9461
0.000298819
-6.56206
0.00019321
8.58151
-66.9694
-24.999
5.33169
-81.7881
177.485
-20.1304
-0.280084
92.5731
7.62553
-4.12181
-5.16205
91.8659
20.3127
-17.2121
-0.87439
-7.30469
46.6646
-0.857253
319.712
-0.908406
-0.152027
-0.0602777
26.3955
-0.900498
-1.37289
-0.777036
-25.6925
3.37092
0.430192
-8.87266
335.726
75.9558
51.1427
82.8758
20.0794
17.5544
-6.27329
9.3861
1.88783
13.2201
152.92
-4.63536
-4.24328
22.8981
4.00367
9.00061
82.0993
-44.5627
14.5977
6.87106
57.2496
-37.4657
-0.56309
5.36607
11.8079
4.96742
-0.446345
-0.884744
-0.884078
-0.85837
-0.0231693