/*--------------------------------*- C++ -*----------------------------------*\
  =========                 |
  \\      /  F ield         | OpenFOAM: The Open Source CFD Toolbox
   \\    /   O peration     | Website:  https://openfoam.org
    \\  /    A nd           | Version:  10
     \\/     M anipulation  |
\*---------------------------------------------------------------------------*/
FoamFile
{
    format      ascii;
    class       volScalarField;
    location    "0";
    object      yPlus;
}
// * * * * * * * * * * * * * * * * * * * * * * * * * * * * * * * * * * * * * //

dimensions      [0 0 0 0 0 0 0];

internalField   uniform 0;

boundaryField
{
    wall
    {
        type            calculated;
        value           nonuniform List<scalar> 
3630
(
77.5598
77.5419
77.5103
77.4776
77.4446
77.4123
77.3786
77.3423
77.3049
77.2677
77.2313
77.1924
77.1508
77.108
77.0641
77.019
76.9729
76.9256
76.8772
76.8277
76.7771
76.7254
76.6727
76.6189
76.564
76.5081
76.4512
76.3932
76.3342
76.2742
76.2132
76.1173
81.4304
81.3094
81.2101
81.1111
81.0129
80.9168
80.8208
80.7232
80.6256
80.5271
80.4278
80.3286
80.2309
80.1331
80.0354
79.9378
79.8402
79.7426
79.6451
79.5476
79.4502
79.3529
79.2555
79.1582
79.061
78.9638
78.8667
78.7696
78.6725
78.5755
78.4785
78.4205
125.107
125.034
124.897
124.759
124.622
124.487
124.351
124.213
124.075
123.934
123.793
123.651
123.51
123.368
123.226
123.083
122.94
122.796
122.652
122.507
122.362
122.216
122.07
121.923
121.776
121.628
121.48
121.331
121.182
121.032
120.882
120.657
174.706
174.484
174.362
174.241
174.12
174.002
173.883
173.761
173.64
173.516
173.392
173.268
173.144
173.02
172.896
172.771
172.646
172.52
172.394
172.268
172.142
172.015
171.888
171.76
171.632
171.503
171.374
171.246
171.116
170.987
170.857
170.829
160.889
160.946
160.903
160.86
160.818
160.779
160.74
160.7
160.66
160.619
160.579
160.538
160.499
160.46
160.421
160.383
160.344
160.306
160.269
160.231
160.194
160.157
160.121
160.084
160.048
160.015
159.982
159.946
159.91
159.875
159.839
159.718
90.6844
90.7048
90.771
90.8375
90.9043
90.9728
91.0414
91.1091
91.177
91.2447
91.3123
91.3802
91.4487
91.5174
91.5862
91.6552
91.7244
91.7938
91.8634
91.9331
92.0031
92.0732
92.1435
92.214
92.2847
92.3555
92.4265
92.4978
92.5692
92.6408
92.7125
92.8224
78.652
78.7399
78.7935
78.8473
78.9014
78.9569
79.0126
79.0674
79.1224
79.1773
79.2321
79.2872
79.3426
79.3982
79.4539
79.5098
79.5657
79.6219
79.6781
79.7345
79.7911
79.8478
79.9046
79.9615
80.0186
80.0759
80.1333
80.1908
80.2485
80.3063
80.3642
80.3959
103.833
103.869
103.944
104.019
104.094
104.171
104.248
104.323
104.399
104.475
104.551
104.627
104.704
104.781
104.858
104.935
105.013
105.09
105.168
105.246
105.324
105.403
105.481
105.56
105.639
105.718
105.797
105.877
105.957
106.037
106.117
106.224
117.875
117.969
118.051
118.133
118.215
118.298
118.381
118.464
118.546
118.628
118.711
118.793
118.876
118.96
119.043
119.127
119.211
119.295
119.38
119.464
119.549
119.634
119.719
119.805
119.891
119.977
120.063
120.149
120.236
120.323
120.41
120.484
121.621
121.713
121.789
121.866
121.943
122.022
122.102
122.18
122.258
122.337
122.415
122.494
122.573
122.653
122.732
122.812
122.892
122.973
123.053
123.134
123.215
123.296
123.377
123.459
123.541
123.623
123.705
123.788
123.871
123.954
124.037
124.108
115.815
115.841
115.91
115.979
116.049
116.128
116.208
116.28
116.352
116.424
116.496
116.568
116.64
116.712
116.785
116.857
116.929
117.002
117.074
117.146
117.208
117.27
117.344
117.418
117.492
117.566
117.64
117.715
117.79
117.865
117.94
118.047
100.057
100.166
100.221
100.277
100.334
100.396
100.459
100.518
100.576
100.634
100.692
100.75
100.809
100.868
100.926
100.985
101.044
101.103
101.162
101.22
101.274
101.327
101.387
101.447
101.507
101.567
101.628
101.688
101.749
101.81
101.871
101.892
73.0291
73.0295
73.0662
73.103
73.1402
73.1786
73.2171
73.2549
73.2928
73.3306
73.3684
73.4063
73.4446
73.483
73.5216
73.5602
73.599
73.6379
73.6769
73.716
73.7552
73.7946
73.8341
73.8737
73.9134
73.9533
73.9932
74.0333
74.0736
74.1139
74.1543
74.2242
80.9516
81.0303
81.0683
81.1053
81.1429
81.1818
81.2208
81.259
81.2974
81.3356
81.3736
81.4118
81.4505
81.4894
81.5284
81.5675
81.6067
81.646
81.6855
81.7251
81.7648
81.8047
81.8447
81.8848
81.925
81.9654
82.0059
82.0465
82.0873
82.1281
82.1691
82.1742
135.93
135.815
135.782
135.75
135.718
135.689
135.66
135.63
135.6
135.57
135.539
135.509
135.48
135.451
135.423
135.395
135.367
135.339
135.312
135.285
135.258
135.231
135.205
135.179
135.154
135.128
135.103
135.079
135.054
135.03
135.006
135.065
135.854
135.869
135.816
135.764
135.712
135.662
135.613
135.56
135.508
135.454
135.399
135.343
135.289
135.234
135.179
135.124
135.068
135.012
134.955
134.899
134.842
134.784
134.727
134.669
134.611
134.552
134.493
134.434
134.375
134.315
134.255
134.116
83.3723
83.2824
83.2151
83.1479
83.0816
83.0175
82.9534
82.8876
82.8219
82.7551
82.6876
82.6202
82.5541
82.488
82.422
82.356
82.29
82.224
82.1581
82.0922
82.0263
81.9604
81.8946
81.8287
81.763
81.6972
81.6314
81.5657
81.5
81.4343
81.3687
81.3442
77.8234
77.8434
77.8496
77.855
77.86
77.8659
77.8706
77.8728
77.8739
77.8754
77.8779
77.8779
77.8753
77.8716
77.8669
77.8612
77.8545
77.8467
77.838
77.8282
77.8175
77.8058
77.7931
77.7794
77.7648
77.7492
77.7327
77.7153
77.6969
77.6776
77.6574
77.6007
135.266
135.327
135.403
135.479
135.553
135.658
135.777
135.86
135.944
136.029
136.116
136.201
136.285
136.37
136.455
136.54
136.626
136.711
136.797
136.882
136.968
137.054
137.141
137.227
137.314
137.401
137.487
137.575
137.662
137.749
137.837
137.913
130.768
130.982
131.19
131.399
131.605
131.773
131.946
132.144
132.343
132.537
132.728
132.922
133.12
133.319
133.518
133.717
133.916
134.115
134.315
134.515
134.715
134.915
135.116
135.317
135.518
135.719
135.921
136.123
136.325
136.527
136.73
136.969
121.913
122.124
122.315
122.504
122.706
122.914
123.121
123.325
123.529
123.739
123.951
124.164
124.369
124.575
124.781
124.987
125.193
125.399
125.605
125.812
126.018
126.225
126.431
126.638
126.845
127.052
127.259
127.466
127.673
127.881
128.088
128.242
109.281
109.276
109.285
109.291
109.291
109.294
109.294
109.292
109.289
109.28
109.261
109.251
109.242
109.234
109.224
109.213
109.202
109.189
109.176
109.162
109.147
109.131
109.114
109.096
109.077
109.057
109.036
109.014
108.991
108.967
108.941
108.974
135.273
135.348
135.437
135.527
135.616
135.734
135.867
135.964
136.062
136.161
136.262
136.361
136.459
136.558
136.657
136.757
136.856
136.956
137.055
137.155
137.256
137.356
137.456
137.557
137.658
137.759
137.861
137.962
138.064
138.166
138.268
138.358
130.781
131.019
131.253
131.486
131.718
131.91
132.107
132.331
132.554
132.773
132.989
133.208
133.431
133.654
133.877
134.101
134.325
134.549
134.773
134.998
135.223
135.448
135.673
135.898
136.124
136.35
136.576
136.802
137.029
137.256
137.483
137.747
121.918
122.138
122.338
122.537
122.748
122.965
123.181
123.394
123.608
123.827
124.048
124.269
124.484
124.699
124.914
125.128
125.343
125.558
125.773
125.988
126.203
126.418
126.634
126.849
127.064
127.28
127.495
127.711
127.926
128.142
128.358
128.52
109.272
109.249
109.241
109.23
109.212
109.196
109.18
109.16
109.139
109.112
109.076
109.048
109.022
108.996
108.968
108.94
108.911
108.881
108.851
108.819
108.787
108.753
108.719
108.683
108.647
108.61
108.571
108.532
108.492
108.45
108.408
108.423
77.5615
77.547
77.5188
77.4896
77.4601
77.4313
77.4012
77.3686
77.3348
77.3013
77.2686
77.2334
77.1956
77.1566
77.1165
77.0753
77.033
76.9897
76.9452
76.8997
76.8531
76.8054
76.7567
76.707
76.6563
76.6045
76.5517
76.4979
76.4431
76.3874
76.3306
76.2389
81.4325
81.3159
81.2209
81.1261
81.0322
80.9405
80.8487
80.7555
80.6622
80.568
80.473
80.3782
80.2847
80.1913
80.0979
80.0046
79.9113
79.818
79.7248
79.6317
79.5386
79.4455
79.3525
79.2595
79.1666
79.0738
78.9809
78.8881
78.7954
78.7027
78.6101
78.5565
125.11
125.042
124.91
124.778
124.646
124.517
124.387
124.254
124.121
123.986
123.85
123.714
123.578
123.442
123.305
123.168
123.031
122.892
122.754
122.615
122.475
122.335
122.194
122.053
121.911
121.769
121.627
121.484
121.34
121.196
121.052
120.832
174.709
174.491
174.375
174.258
174.142
174.029
173.915
173.799
173.682
173.564
173.445
173.325
173.207
173.088
172.968
172.849
172.729
172.608
172.488
172.367
172.245
172.124
172.001
171.879
171.756
171.633
171.509
171.386
171.263
171.139
171.014
170.99
160.89
160.949
160.908
160.868
160.828
160.792
160.756
160.717
160.68
160.641
160.603
160.565
160.528
160.491
160.455
160.418
160.383
160.347
160.311
160.276
160.242
160.207
160.173
160.139
160.105
160.074
160.044
160.012
159.98
159.946
159.911
159.791
90.6844
90.7048
90.771
90.8375
90.9043
90.9728
91.0414
91.1091
91.177
91.2447
91.3123
91.3802
91.4487
91.5174
91.5862
91.6552
91.7244
91.7938
91.8634
91.9331
92.0031
92.0732
92.1435
92.214
92.2847
92.3555
92.4265
92.4978
92.5692
92.6408
92.7125
92.8224
78.652
78.7399
78.7935
78.8473
78.9014
78.9569
79.0126
79.0674
79.1224
79.1773
79.2321
79.2872
79.3426
79.3982
79.4539
79.5098
79.5657
79.6219
79.6781
79.7345
79.7911
79.8478
79.9046
79.9615
80.0186
80.0759
80.1333
80.1908
80.2485
80.3063
80.3642
80.3959
103.833
103.869
103.944
104.019
104.094
104.171
104.248
104.323
104.399
104.475
104.551
104.627
104.704
104.781
104.858
104.935
105.013
105.09
105.168
105.246
105.324
105.403
105.481
105.56
105.639
105.718
105.797
105.877
105.957
106.037
106.117
106.224
117.875
117.969
118.051
118.133
118.215
118.298
118.381
118.464
118.546
118.628
118.711
118.793
118.876
118.96
119.043
119.127
119.211
119.295
119.38
119.464
119.549
119.634
119.719
119.805
119.891
119.977
120.063
120.149
120.236
120.323
120.41
120.484
121.621
121.713
121.789
121.866
121.943
122.022
122.102
122.18
122.258
122.337
122.415
122.494
122.573
122.653
122.732
122.812
122.892
122.973
123.053
123.134
123.215
123.296
123.377
123.459
123.541
123.623
123.705
123.788
123.871
123.954
124.037
124.108
115.815
115.841
115.91
115.979
116.049
116.128
116.208
116.28
116.352
116.424
116.496
116.568
116.64
116.712
116.785
116.857
116.929
117.002
117.074
117.146
117.208
117.27
117.344
117.418
117.492
117.566
117.64
117.715
117.79
117.865
117.94
118.047
100.057
100.166
100.221
100.277
100.334
100.396
100.459
100.518
100.576
100.634
100.692
100.75
100.809
100.868
100.926
100.985
101.044
101.103
101.162
101.22
101.274
101.327
101.387
101.447
101.507
101.567
101.628
101.688
101.749
101.81
101.871
101.892
73.0291
73.0295
73.0662
73.103
73.1402
73.1786
73.2171
73.2549
73.2928
73.3306
73.3684
73.4063
73.4446
73.483
73.5216
73.5602
73.599
73.6379
73.6769
73.716
73.7552
73.7946
73.8341
73.8737
73.9134
73.9533
73.9932
74.0333
74.0736
74.1139
74.1543
74.2242
80.9516
81.0303
81.0683
81.1053
81.1429
81.1818
81.2208
81.259
81.2974
81.3356
81.3736
81.4118
81.4505
81.4894
81.5284
81.5675
81.6067
81.646
81.6855
81.7251
81.7648
81.8047
81.8447
81.8848
81.925
81.9654
82.0059
82.0465
82.0873
82.1281
82.1691
82.1742
135.928
135.811
135.776
135.741
135.707
135.675
135.644
135.611
135.579
135.546
135.513
135.48
135.448
135.417
135.386
135.355
135.325
135.295
135.265
135.235
135.206
135.177
135.148
135.12
135.091
135.064
135.036
135.009
134.982
134.955
134.929
134.985
135.852
135.863
135.807
135.751
135.695
135.642
135.588
135.532
135.476
135.418
135.359
135.3
135.242
135.183
135.124
135.065
135.006
134.946
134.886
134.825
134.764
134.703
134.641
134.58
134.518
134.455
134.392
134.329
134.266
134.202
134.138
133.995
83.3709
83.278
83.2077
83.1376
83.0683
83.0012
82.9341
82.8653
82.7966
82.7268
82.6562
82.5858
82.5167
82.4476
82.3786
82.3095
82.2405
82.1715
82.1025
82.0335
81.9645
81.8956
81.8266
81.7577
81.6888
81.62
81.5511
81.4823
81.4134
81.3446
81.2758
81.2482
77.8232
77.8427
77.8483
77.8531
77.8576
77.863
77.867
77.8686
77.8691
77.8699
77.8717
77.871
77.8677
77.8633
77.8579
77.8514
77.8439
77.8354
77.8258
77.8152
77.8036
77.7911
77.7775
77.7629
77.7474
77.7309
77.7135
77.6951
77.6757
77.6555
77.6343
77.5766
135.247
135.272
135.311
135.35
135.388
135.456
135.538
135.585
135.631
135.679
135.729
135.777
135.824
135.872
135.92
135.968
136.016
136.064
136.112
136.16
136.209
136.257
136.306
136.355
136.404
136.453
136.502
136.551
136.6
136.65
136.699
136.737
135.273
135.348
135.438
135.528
135.617
135.735
135.869
135.967
136.065
136.164
136.265
136.364
136.463
136.562
136.662
136.761
136.861
136.961
137.061
137.161
137.262
137.362
137.463
137.564
137.665
137.767
137.868
137.97
138.072
138.174
138.277
138.367
130.741
130.9
131.054
131.208
131.36
131.473
131.591
131.735
131.879
132.018
132.155
132.295
132.439
132.583
132.727
132.872
133.017
133.162
133.307
133.453
133.599
133.745
133.892
134.038
134.185
134.332
134.48
134.628
134.776
134.924
135.073
135.257
130.782
131.022
131.257
131.493
131.726
131.92
132.119
132.344
132.569
132.79
133.008
133.228
133.453
133.678
133.903
134.129
134.355
134.58
134.807
135.033
135.259
135.486
135.713
135.941
136.168
136.396
136.624
136.852
137.08
137.309
137.538
137.804
121.905
122.1
122.274
122.448
122.633
122.825
123.017
123.204
123.393
123.587
123.783
123.98
124.169
124.359
124.549
124.739
124.93
125.12
125.31
125.501
125.692
125.882
126.073
126.264
126.455
126.647
126.838
127.03
127.221
127.413
127.605
127.743
121.922
122.15
122.358
122.564
122.783
123.008
123.233
123.454
123.675
123.902
124.131
124.36
124.583
124.805
125.028
125.25
125.473
125.696
125.919
126.142
126.365
126.587
126.81
127.034
127.257
127.48
127.703
127.927
128.15
128.373
128.597
128.767
109.272
109.25
109.243
109.233
109.216
109.201
109.185
109.166
109.146
109.121
109.085
109.058
109.033
109.008
108.982
108.955
108.927
108.898
108.868
108.838
108.806
108.774
108.741
108.706
108.671
108.635
108.598
108.56
108.521
108.48
108.439
108.456
109.282
109.281
109.293
109.303
109.306
109.312
109.316
109.317
109.317
109.312
109.296
109.289
109.284
109.278
109.272
109.264
109.256
109.247
109.236
109.225
109.213
109.2
109.187
109.172
109.156
109.139
109.121
109.102
109.082
109.061
109.038
109.074
77.2324
77.2234
77.2426
77.2204
77.1942
77.1821
77.1847
77.2018
77.2486
77.2074
77.1864
77.1797
77.1877
77.2101
77.2507
77.2208
77.2355
77.2422
77.2559
81.1632
81.1689
81.2385
81.2545
81.2657
81.2724
81.2739
81.2705
81.2927
81.27
81.2758
81.2769
81.2727
81.2638
81.2741
81.1876
81.1008
81.0802
81.1639
124.627
124.618
124.537
124.501
124.389
124.345
124.37
124.463
124.559
124.499
124.393
124.355
124.385
124.484
124.541
124.589
124.741
124.798
124.693
173.734
173.799
173.919
173.954
174.006
174.027
174.015
173.971
173.977
173.953
174.003
174.021
174.007
173.96
173.961
173.904
173.759
173.541
173.709
160.13
160.14
160.036
159.952
159.844
159.796
159.808
159.88
159.95
159.905
159.817
159.789
159.821
159.913
160
160.039
160.166
160.266
160.182
90.4104
90.3835
90.408
90.4193
90.428
90.4279
90.4187
90.4005
90.3845
90.3917
90.4088
90.417
90.4162
90.4063
90.3947
90.3722
90.3433
90.3336
90.4004
78.4615
78.4565
78.4361
78.4156
78.4096
78.4025
78.3942
78.3849
78.3868
78.3791
78.385
78.3898
78.3935
78.3961
78.4155
78.4227
78.4495
78.4741
78.4676
103.726
103.688
103.669
103.619
103.582
103.56
103.552
103.56
103.572
103.559
103.543
103.542
103.555
103.583
103.613
103.639
103.653
103.674
103.72
117.784
117.764
117.743
117.728
117.72
117.709
117.694
117.675
117.662
117.665
117.678
117.687
117.693
117.694
117.705
117.727
117.738
117.765
117.784
121.561
121.545
121.516
121.484
121.448
121.425
121.414
121.416
121.416
121.412
121.401
121.403
121.416
121.442
121.46
121.484
121.513
121.543
121.558
115.832
115.801
115.773
115.751
115.75
115.744
115.732
115.714
115.692
115.704
115.719
115.728
115.73
115.726
115.735
115.766
115.79
115.807
115.834
100.084
100.085
100.052
100.038
100.003
99.9859
99.9816
99.9906
99.9845
99.9916
99.9758
99.9733
99.9841
100.008
100.015
100.034
100.044
100.078
100.08
73.1986
73.1943
73.1906
73.1966
73.2133
73.2147
73.2093
73.1972
73.1884
73.1918
73.2038
73.2091
73.2077
73.1995
73.1922
73.1918
73.1991
73.1983
73.1988
81.1899
81.1916
81.1729
81.1577
81.132
81.1243
81.125
81.134
81.145
81.137
81.1252
81.1218
81.1268
81.1402
81.1527
81.1615
81.1719
81.1938
81.1891
136.814
136.85
136.841
136.888
136.838
136.814
136.821
136.857
136.865
136.871
136.826
136.812
136.828
136.874
136.857
136.86
136.856
136.845
136.817
136.924
136.95
136.945
137.008
137.05
137.072
137.074
137.056
137.051
137.053
137.078
137.084
137.071
137.038
137.012
136.986
136.893
136.895
136.919
83.958
83.9754
83.9709
84.0072
83.9686
83.9535
83.9629
83.9966
84.0099
84.0102
83.972
83.9582
83.9688
84.0037
83.9905
83.9789
83.9856
84.0162
83.966
78.3627
78.3905
78.3578
78.3938
78.3761
78.3681
78.3695
78.3804
78.3613
78.3843
78.3707
78.3665
78.3718
78.3866
78.3589
78.3805
78.3742
78.3805
78.3588
77.2185
77.247
77.219
77.1941
77.1833
77.1873
77.2057
77.2498
77.2043
77.1846
77.1793
77.1887
77.2123
77.2552
77.2243
77.2157
77.2097
77.2377
77.2733
81.1765
81.2218
81.2508
81.2624
81.2693
81.271
81.268
81.2927
81.2705
81.2766
81.2779
81.274
81.2655
81.2863
81.1884
81.1305
81.1704
81.1016
81.1705
124.579
124.589
124.471
124.369
124.335
124.37
124.473
124.557
124.482
124.386
124.358
124.399
124.508
124.544
124.603
124.667
124.664
124.735
124.738
173.814
173.899
173.97
174.017
174.033
174.016
173.967
173.981
173.961
174.006
174.019
174
173.949
173.971
173.932
173.749
173.471
173.478
173.705
160.076
160.046
159.942
159.84
159.798
159.817
159.895
159.952
159.892
159.81
159.788
159.826
159.924
160.006
160.036
160.187
160.316
160.336
160.214
90.4309
90.4238
90.4341
90.4397
90.4365
90.4242
90.4029
90.3877
90.395
90.4091
90.4141
90.4101
90.3972
90.3817
90.3536
90.3283
90.3203
90.3164
90.3956
78.455
78.4484
78.4301
78.4216
78.4121
78.4014
78.3895
78.3899
78.3809
78.3843
78.3866
78.3878
78.3879
78.409
78.4161
78.4336
78.468
78.4874
78.471
103.73
103.692
103.635
103.596
103.573
103.564
103.57
103.576
103.558
103.54
103.537
103.549
103.576
103.599
103.615
103.632
103.649
103.67
103.717
117.784
117.774
117.754
117.741
117.726
117.706
117.683
117.667
117.668
117.677
117.681
117.682
117.679
117.69
117.708
117.716
117.743
117.768
117.785
121.563
121.547
121.506
121.467
121.441
121.428
121.427
121.422
121.412
121.398
121.397
121.408
121.431
121.443
121.46
121.484
121.513
121.544
121.557
115.831
115.8
115.772
115.766
115.757
115.741
115.719
115.696
115.707
115.719
115.724
115.722
115.714
115.721
115.753
115.775
115.8
115.807
115.826
100.084
100.068
100.049
100.013
99.9948
99.9898
99.9981
99.9875
99.99
99.9736
99.9703
99.9804
100.004
100.003
100.013
100.013
100.04
100.081
100.08
73.208
73.1978
73.2034
73.2196
73.2192
73.212
73.198
73.1899
73.194
73.2042
73.2076
73.2043
73.1942
73.1883
73.1913
73.1975
73.212
73.2051
73.1994
81.1831
81.1816
81.1593
81.1329
81.1258
81.127
81.1366
81.1454
81.1353
81.1241
81.1213
81.1269
81.1408
81.152
81.1533
81.1524
81.1498
81.1826
81.1865
136.84
136.839
136.882
136.836
136.815
136.824
136.864
136.864
136.864
136.823
136.812
136.831
136.88
136.86
136.859
136.856
136.882
136.907
136.825
136.916
136.933
137
137.042
137.063
137.065
137.047
137.047
137.056
137.081
137.087
137.073
137.04
137.039
137.01
137
136.881
136.865
136.917
83.9628
83.9728
83.9949
83.9601
83.9488
83.962
83.9995
84.0082
84.0041
83.9698
83.9598
83.9742
84.0129
83.9966
83.9796
83.9454
83.9795
84.0336
83.9753
78.3647
78.3693
78.3928
78.376
78.3689
78.3711
78.3828
78.3616
78.3824
78.3696
78.3663
78.3723
78.388
78.358
78.3817
78.3782
78.3701
78.3773
78.357
43.015
43.081
43.1567
43.2344
43.3143
43.3962
43.4804
43.5666
43.655
43.7456
43.8383
43.9332
44.0303
44.1295
44.2308
44.3344
44.44
44.5478
44.6578
44.7699
44.8842
45.0006
45.1191
45.2397
45.3607
45.4921
45.6211
45.7498
45.8807
46.0138
46.146
46.2821
42.0299
41.9389
41.8537
41.7667
41.6777
41.5869
41.4941
41.3995
41.3029
41.2043
41.1039
41.0014
40.897
40.7906
40.6822
40.5717
40.4593
40.3449
40.2284
40.1099
39.9893
39.8667
39.7421
39.6155
39.4867
39.3558
39.2199
39.0837
38.9485
38.8108
38.6679
38.5251
40.7112
40.6907
40.6634
40.6321
40.5966
40.5571
40.5135
40.4658
40.414
40.3581
40.2981
40.2341
40.1659
40.0937
40.0175
39.9372
39.8528
39.7677
39.6764
39.5798
39.4791
39.3745
39.266
39.1534
39.0375
38.9168
38.7879
38.6571
38.5256
38.3902
38.2524
38.1084
41.954
41.942
41.921
41.8954
41.8651
41.8302
41.7906
41.7464
41.6943
41.638
41.5797
41.517
41.4498
41.3782
41.3022
41.2219
41.1372
41.0495
40.9555
40.8582
40.7567
40.6511
40.5418
40.4284
40.3117
40.1899
40.0636
39.9339
39.8001
39.6604
39.5147
39.3748
44.9335
44.8985
44.8568
44.811
44.7611
44.7072
44.6491
44.5871
44.5225
44.4494
44.371
44.2929
44.211
44.1253
44.036
43.943
43.8464
43.7476
43.6432
43.5362
43.4258
43.3121
43.1959
43.0761
42.9532
42.826
42.696
42.5644
42.429
42.2922
42.1585
42.0148
37.6111
37.5544
37.5004
37.4441
37.3847
37.324
37.2616
37.197
37.1302
37.0605
36.9893
36.9161
36.8408
36.7635
36.6861
36.6065
36.5233
36.4384
36.3494
36.2607
36.1704
36.0785
35.9859
35.8914
35.795
35.6961
35.5959
35.4957
35.3939
35.2907
35.1866
35.0697
40.396
40.3051
40.2171
40.1286
40.0402
39.9519
39.8623
39.7721
39.6814
39.5902
39.4986
39.4064
39.3139
39.2211
39.1261
39.0303
38.9368
38.843
38.749
38.6548
38.5605
38.4661
38.37
38.2742
38.1802
38.0851
37.9899
37.8962
37.8047
37.7121
37.6197
37.5256
55.6493
55.5284
55.4017
55.2762
55.1519
55.0287
54.9067
54.7858
54.6661
54.5475
54.4299
54.3135
54.1983
54.0841
53.9711
53.8521
53.735
53.6257
53.5177
53.411
53.3057
53.2017
53.1011
53.0067
52.91
52.8104
52.7125
52.6179
52.5241
52.4319
52.349
52.2857
59.4627
59.3233
59.1792
59.0384
58.9011
58.7668
58.6358
58.5085
58.3845
58.2638
58.1465
58.0325
57.9217
57.8084
57.6983
57.5888
57.4828
57.3885
57.3004
57.2145
57.13
57.0486
56.9701
56.9014
56.8382
56.7667
56.6983
56.635
56.573
56.5137
56.4564
56.3977
53.1462
53.019
52.891
52.7677
52.6493
52.5336
52.4222
52.3174
52.2175
52.1224
52.032
51.9462
51.865
51.7822
51.704
51.6316
51.5634
51.5053
51.4516
51.4014
51.3569
51.3168
51.2807
51.254
51.2317
51.2066
51.1861
51.1646
51.1463
51.1358
51.1321
51.1238
38.7164
38.6191
38.5305
38.4469
38.3682
38.2945
38.2258
38.162
38.1036
38.0511
38.0021
37.958
37.9188
37.8843
37.8546
37.8296
37.8092
37.7935
37.7823
37.7755
37.7732
37.7737
37.779
37.7895
37.8044
37.8227
37.8461
37.874
37.9093
37.9463
37.9864
38.0323
38.8196
38.751
38.6926
38.6401
38.5937
38.5535
38.5192
38.491
38.4707
38.4575
38.4475
38.448
38.4514
38.4589
38.4721
38.491
38.5156
38.5435
38.5749
38.6161
38.6626
38.716
38.775
38.8368
38.9039
38.9763
39.0536
39.1335
39.216
39.305
39.3955
39.4967
53.6863
53.6555
53.6277
53.6079
53.596
53.5929
53.5982
53.6116
53.6331
53.6626
53.7003
53.7531
53.8115
53.8735
53.9433
54.021
54.1064
54.1941
54.2878
54.3964
54.5127
54.6363
54.7672
54.9057
55.05
55.203
55.363
55.5284
55.6988
55.8766
56.0661
56.2494
56.5481
56.581
56.6144
56.6558
56.7051
56.7625
56.8288
56.9035
56.9855
57.0757
57.1741
57.2807
57.3956
57.5186
57.6499
57.7893
57.9368
58.0924
58.2559
58.4311
58.6133
58.8001
58.9944
59.2005
59.4121
59.6287
59.8526
60.0824
60.3191
60.5595
60.807
61.0656
49.3454
49.4186
49.4917
49.5702
49.6544
49.7444
49.8408
49.9431
50.0508
50.1643
50.2838
50.4092
50.5406
50.6779
50.8211
50.9703
51.1254
51.2863
51.4532
51.6243
51.8006
51.9851
52.1753
52.3712
52.5747
52.7728
52.9832
53.2018
53.4259
53.6563
53.9026
54.1438
136.768
136.772
136.774
136.772
136.78
136.77
136.808
136.813
136.809
136.782
136.773
136.786
136.81
136.811
136.802
136.759
136.756
136.755
136.755
132.082
132.068
132.046
132.078
132.075
132.083
132.038
132.004
132.034
132.088
132.074
132.074
132.026
132.013
132.066
132.112
132.053
132.098
132.079
123.063
123.042
123.014
123.05
123.041
123.055
122.955
122.923
122.95
123.049
123.042
123.016
122.938
122.927
122.976
123.075
123.023
123.061
123.059
110.344
110.354
110.358
110.365
110.37
110.404
110.415
110.421
110.419
110.41
110.392
110.413
110.418
110.416
110.405
110.384
110.355
110.343
110.334
134.39
134.29
134.266
134.365
134.309
134.435
134.463
134.464
134.462
134.458
134.3
134.436
134.489
134.494
134.485
134.458
134.369
134.335
134.385
129.937
129.894
129.905
129.912
129.933
129.942
129.782
129.756
129.779
129.85
129.944
129.929
129.76
129.748
129.791
129.87
129.908
129.886
129.894
121.155
121.128
121.109
121.092
121.138
121.013
120.935
120.903
120.932
121.088
121.153
120.964
120.895
120.879
120.934
121.112
121.166
121.097
121.114
108.671
108.622
108.624
108.659
108.714
108.742
108.752
108.754
108.755
108.723
108.701
108.757
108.771
108.771
108.762
108.713
108.653
108.655
108.668
134.853
137.705
133.705
135.02
131.775
132.219
128.862
129.589
126.901
128.064
125.923
126.819
125.241
126.135
124.958
125.961
125.106
126.148
125.667
126.845
126.64
127.997
128.61
129.526
131.444
132.17
133.569
134.955
134.983
137.554
108.374
109.991
107.472
109.103
106.747
108.354
106.271
107.816
105.987
107.5
105.818
107.323
105.673
107.17
105.566
107.055
105.515
107.009
105.552
107.053
105.675
107.176
105.837
107.347
106.019
107.53
106.336
107.871
106.837
108.432
107.545
109.177
108.391
110.019
134.18
137.137
134.032
137.223
134.042
137.263
134.207
137.14
129.197
131.229
120.309
122.017
120.327
122.105
129.233
131.32
131.552
133.016
128.74
129.44
125.877
127
120.597
121.495
119.974
120.937
119.733
120.801
119.907
120.969
120.418
121.504
121.255
122.458
128.499
129.301
131.403
132.926
125.623
126.892
121.246
122.472
121.478
122.493
121.448
122.592
118.201
119.7
116.25
117.686
114.938
116.281
114.297
115.582
113.973
115.236
113.585
114.798
113.29
114.493
113.196
114.352
113.31
114.456
113.635
114.803
114.076
115.3
114.42
115.66
115.064
116.386
116.392
117.848
118.322
119.881
126.94
128.264
127.063
128.403
121.42
122.815
123.632
124.922
123.808
125.068
121.661
122.901
136.793
136.812
136.79
136.517
136.598
136.629
136.739
136.792
136.691
136.531
136.534
135.667
134.002
132.177
130.697
130.167
130.167
130.096
130.008
129.981
130.657
132.29
134.374
136.056
133.896
132.503
133.033
132.941
132.702
132.208
133.934
135.476
136.51
134.822
135.154
135.41
135.548
136
135.089
136.073
134.385
134.295
134.264
134.451
134.421
134.424
134.436
134.354
134.267
134.281
134.151
134.23
134.405
134.399
134.253
134.2
134.199
134.135
134.408
136.753
136.75
136.757
136.802
136.806
136.805
136.799
136.749
136.791
136.803
136.803
136.803
136.802
136.747
136.793
136.791
136.788
136.788
136.783
129.886
130.016
129.95
129.87
129.789
129.801
129.852
130.023
129.895
129.96
130.063
129.932
129.89
129.917
129.912
130.067
130.057
129.893
129.99
132.099
132.062
132.111
132.068
132.01
132.028
132.108
132.066
132.081
132.02
131.999
132.035
132.13
132.061
132.072
132.01
132.005
132.064
132.094
121.094
121.157
121.123
120.978
120.954
120.969
121.033
121.165
121.121
121.006
120.979
121.023
121.084
121.172
121.113
121.097
121.115
121.161
121.188
123.065
123.036
123.071
122.976
122.938
122.954
123.028
123.05
123.041
122.958
122.939
122.972
123.058
123.051
123.037
122.992
122.987
123.038
123.073
108.671
108.645
108.682
108.711
108.714
108.72
108.734
108.694
108.68
108.672
108.656
108.677
108.715
108.718
108.652
108.593
108.577
108.608
108.676
110.331
110.348
110.379
110.395
110.404
110.407
110.406
110.398
110.406
110.41
110.41
110.408
110.404
110.393
110.38
110.37
110.366
110.365
110.354
77.2157
77.2662
77.2333
77.2149
77.2017
77.1942
77.1925
77.1966
77.2063
77.2216
77.2759
77.2254
77.2249
77.2404
77.2433
77.2446
77.2599
81.1726
81.2299
81.2408
81.2482
81.2538
81.2574
81.2587
81.2576
81.2543
81.2492
81.2764
81.22
81.18
81.1113
81.0906
81.0979
81.1765
124.559
124.592
124.482
124.393
124.332
124.299
124.294
124.317
124.368
124.446
124.542
124.499
124.556
124.701
124.755
124.747
124.667
173.804
173.921
173.961
174.002
174.031
174.047
174.049
174.038
174.014
173.977
174.002
173.896
173.896
173.794
173.578
173.565
173.72
160.075
160.057
159.977
159.897
159.841
159.81
159.803
159.821
159.863
159.929
160.006
160.034
160.063
160.161
160.232
160.256
160.169
90.4293
90.4406
90.4498
90.4599
90.4665
90.4695
90.4687
90.4642
90.4561
90.4443
90.4357
90.4153
90.3928
90.3733
90.3659
90.351
90.4072
78.4626
78.4612
78.4537
78.4532
78.4523
78.4509
78.4491
78.4468
78.444
78.4408
78.4517
78.4441
78.4522
78.4557
78.4758
78.4858
78.4721
103.729
103.725
103.676
103.654
103.638
103.627
103.623
103.625
103.633
103.646
103.665
103.685
103.693
103.693
103.694
103.702
103.729
117.79
117.805
117.795
117.796
117.797
117.795
117.792
117.788
117.781
117.774
117.765
117.769
117.769
117.777
117.784
117.793
117.794
121.569
121.583
121.557
121.537
121.523
121.513
121.508
121.509
121.514
121.524
121.529
121.546
121.546
121.555
121.564
121.575
121.569
115.829
115.834
115.803
115.808
115.811
115.812
115.81
115.806
115.799
115.789
115.777
115.799
115.813
115.821
115.824
115.818
115.826
100.101
100.077
100.082
100.06
100.046
100.038
100.035
100.037
100.044
100.057
100.054
100.075
100.072
100.075
100.095
100.123
100.098
73.208
73.2176
73.2207
73.2336
73.2388
73.2414
73.2412
73.2382
73.2326
73.2242
73.2167
73.2075
73.2094
73.2108
73.2099
73.1912
73.1927
81.1946
81.1808
81.1703
81.1523
81.1442
81.1396
81.1384
81.1406
81.1462
81.1553
81.1611
81.1732
81.1775
81.1857
81.196
81.2257
81.1996
136.847
136.844
136.92
136.882
136.854
136.838
136.835
136.844
136.865
136.899
136.842
136.915
136.874
136.871
136.861
136.852
136.774
136.914
136.952
136.984
137.012
137.032
137.043
137.047
137.042
137.03
137.01
136.945
136.979
136.976
136.912
136.912
136.984
136.935
83.9493
83.9713
84.0065
83.9752
83.9534
83.9416
83.9399
83.9482
83.9666
83.9949
83.9706
83.9955
83.9739
83.9796
84.0082
83.9974
83.9388
78.3543
78.3825
78.4084
78.395
78.3857
78.3805
78.3793
78.382
78.3888
78.3996
78.3532
78.3916
78.3902
78.3885
78.3884
78.4054
78.3484
)
;
    }
    symmetry
    {
        type            symmetry;
    }
    pressure-outlet-7
    {
        type            calculated;
        value           uniform 0;
    }
    velocity-inlet-6
    {
        type            calculated;
        value           uniform 0;
    }
    velocity-inlet-5
    {
        type            calculated;
        value           uniform 0;
    }
}


// ************************************************************************* //
