/*--------------------------------*- C++ -*----------------------------------*\
| =========                 |                                                 |
| \\      /  F ield         | OpenFOAM: The Open Source CFD Toolbox           |
|  \\    /   O peration     | Version:  3.0.1                                 |
|   \\  /    A nd           | Web:      www.OpenFOAM.org                      |
|    \\/     M anipulation  |                                                 |
\*---------------------------------------------------------------------------*/
FoamFile
{
    version     2.0;
    format      ascii;
    class       volScalarField;
    location    "0";
    object      p;
}
// * * * * * * * * * * * * * * * * * * * * * * * * * * * * * * * * * * * * * //

dimensions      [0 2 -2 0 0 0 0];

internalField   nonuniform List<scalar> 
487909
(
-0.885793
-0.886652
-0.893306
-0.909048
-0.886505
-0.891358
-0.908056
-0.884295
-0.90357
-0.893006
-0.883278
-0.88861
-0.906165
-0.892419
-0.902058
-0.89373
-0.892591
-0.60246
-0.902648
-0.952134
-0.888295
-0.890463
-0.90185
-0.888531
-0.898086
-0.893414
-0.887972
-0.524395
-0.898893
-0.946939
-0.875751
-0.904531
-0.915461
-0.923473
-0.955246
-0.887376
-0.886915
-0.892739
-0.882276
-0.889503
-0.891951
-0.894875
-0.898879
-0.909556
-0.918959
-0.859729
-0.91152
-0.908915
-0.931627
-0.928286
-0.89337
-0.899861
-0.810059
-0.828621
-0.941414
-0.832859
-0.884236
-0.881212
-0.875813
-0.873031
-0.873182
-0.888466
-0.891202
-0.899322
-0.906693
-0.858854
-0.837153
-0.909141
-0.896443
-0.943261
-0.868063
-0.887097
-0.885733
-0.919949
-0.696784
-0.957694
-0.811058
-0.903906
-0.90991
-0.741107
-0.898361
-0.770364
-0.903393
-1.16278
-0.887858
-0.890649
-0.848178
-0.89288
-0.845508
-0.880815
-0.885433
-0.898389
-0.90287
-0.770559
-0.807467
-0.906325
-0.877496
-0.956797
-0.778519
-0.877131
-0.864966
-0.921269
-0.56207
-0.982431
-0.778687
-0.902687
-0.909833
-0.648821
-0.900111
-0.591655
-0.899307
-0.733219
-0.848668
-0.613736
-0.911973
-0.895405
-0.907576
-0.911981
-0.228044
-0.743587
-0.884078
-0.886607
-0.808414
-0.888748
-0.803649
-0.86508
-0.876958
-0.895231
-0.897533
-0.669832
-0.901764
-0.90258
-0.921604
-0.965756
-0.676129
-0.862379
-0.914394
-0.924072
-0.450371
-1.00713
-0.728096
-0.901021
-0.909318
-0.912912
-0.902067
-0.455181
-0.892789
-0.472046
-0.899444
-0.903206
-0.885978
-0.894657
-0.912118
-0.906335
-0.179918
-0.203978
-0.869283
-0.816384
-0.365923
-0.851817
-0.927368
-0.921934
-0.102068
-0.657771
-0.878575
-0.877834
-0.880004
-0.75762
-0.881929
-0.747362
-0.835554
-0.894718
-0.888012
-0.913772
-0.919401
-0.900032
-0.913573
-0.921407
-0.957929
-0.923618
-0.842132
-0.913425
-0.927608
-0.359184
-1.0175
-0.65156
-0.901722
-0.907098
-0.915031
-0.904824
-0.352846
-0.882899
-0.325293
-0.896122
-0.90368
-0.831821
-0.890095
-0.919738
-0.89558
-0.136188
-0.130019
-0.846848
-0.75991
-0.898059
-0.814723
-0.943106
-0.901722
-0.89856
-0.225204
-0.69102
-0.902908
-0.902756
-0.892064
-0.737539
-0.900285
-0.958444
-0.894788
-0.262646
-0.839013
-0.268322
-0.890579
-0.870209
-0.906552
-0.871524
-0.679777
-0.786208
-0.890755
-0.873729
-0.911178
-0.92238
-0.898124
-0.911268
-0.921935
-0.912147
-0.926944
-0.897477
-0.912191
-0.929463
-0.903842
-0.983089
-0.549357
-0.899174
-0.900806
-0.918271
-0.908569
-0.910506
-0.868949
-0.247607
-0.890386
-0.903201
-0.747127
-0.87568
-0.932059
-0.877374
-0.903131
-0.113508
-0.815084
-0.688015
-0.899499
-0.750156
-0.959414
-0.863414
-0.899237
-0.138507
-0.427345
-0.89974
-0.905319
-0.886411
-0.648529
-0.851154
-0.974053
-0.894084
-0.167398
-0.827563
0.051811
-0.780838
-0.889922
-0.794242
-0.908552
-0.698203
-0.459088
-0.890131
-0.20187
-0.779534
-0.863528
-3.00886
-0.889042
-0.891918
-0.90595
-0.856829
-0.605544
-0.714444
-0.884303
-0.848456
-0.9078
-0.927639
-0.89872
-0.90845
-0.921502
-0.8162
-0.932943
-0.893927
-0.909016
-0.925069
-0.90638
-0.880082
-0.435744
-0.895799
-0.886914
-0.922581
-0.912492
-0.914212
-0.907424
-0.187144
-0.880847
-0.900866
-0.644426
-0.840895
-0.95042
-0.850115
-0.905227
-0.101342
-0.773604
-0.607409
-0.900549
-0.655569
-0.961766
-0.806196
-0.900575
-0.111217
-0.667772
-0.894736
-0.903483
-0.873461
-0.542245
-0.739506
-0.981687
-0.893037
-0.123142
-0.805424
-0.0870512
-0.900833
-0.917598
-0.724786
-0.905127
-0.565031
-0.920149
-0.887019
-0.142837
-0.740579
-0.86315
-3.34489
-0.9062
-0.910907
-0.909577
-0.921264
-0.553208
-0.987787
-0.882837
-0.161636
-0.704901
-0.0379015
-1.89761
-0.910723
-0.886066
-0.887698
-0.904268
-0.894232
-0.901156
-0.625373
-0.874441
-0.808425
-0.902547
-0.935928
-0.895909
-0.904029
-0.917368
-0.68748
-0.942646
-0.887713
-0.901438
-0.907962
-0.909865
-0.727722
-0.333042
-0.900943
-0.861271
-0.926792
-0.913723
-0.920277
-0.903718
-0.908147
-0.866015
-0.894737
-0.542187
-0.773421
-0.975595
-0.813786
-0.909036
-0.0884686
-0.723176
-0.525492
-0.901225
-0.544462
-0.914511
-0.735278
-0.904077
-0.0960976
-0.684341
-0.886585
-0.908377
-0.847091
-0.437875
-0.582176
-0.967056
-0.892557
-0.0987394
-0.747264
0.0872747
-0.898639
-0.916348
-0.63406
-0.900014
-0.43539
-0.924662
-0.883091
-0.107321
-0.676991
-0.868688
-2.5684
-0.906379
-0.898802
-0.905681
-0.919553
-0.434963
-1.03425
-0.876193
-0.116901
-0.640581
-0.038515
-3.32048
-0.915003
-0.865021
-0.898819
-0.92253
-0.940071
-0.435387
-1.04297
-0.872013
-0.122032
-0.62286
-0.0380796
0.243128
-1.88977
-0.45447
-0.888753
-0.880688
-0.900155
-0.89017
-0.901259
-0.531212
-0.860478
-0.752023
-0.894892
-0.947379
-0.891922
-0.897523
-0.90613
-0.560989
-0.957393
-0.8775
-0.886582
-0.871597
-0.915038
-0.578456
-0.252515
-0.897805
-0.820668
-0.92743
-0.905234
-0.930215
-0.897742
-0.911511
-0.84467
-0.881605
-0.448974
-0.670045
-1.00564
-0.920446
-0.916608
-0.0728096
-0.905415
-0.446208
-0.900774
-0.439417
-0.78365
-0.924809
-0.912111
-0.0847312
-0.203087
-0.874076
-0.906077
-0.799934
-0.349796
-0.438304
-0.911649
-0.894176
-0.0838904
-0.616613
-0.13785
-0.894168
-0.915038
-0.53483
-0.892186
-0.33487
-0.932256
-0.879152
-0.0860044
-0.574623
-0.872897
-2.89295
-0.904992
-0.875084
-0.899657
-0.913677
-0.336649
-1.11564
-0.867902
-0.0888023
-0.552164
-0.0348443
-3.02144
-0.924204
-0.905387
-0.877269
-0.918404
-0.926137
-0.337157
-0.699695
-0.860574
-0.0886755
-0.541886
-0.0346349
-0.344251
-1.78719
-0.209989
-0.877045
-0.903314
-0.918898
-0.953849
-0.871963
-0.24117
-0.856995
-0.879866
-0.87781
-0.0342391
-1.13519
-0.916285
-0.0100838
-1.42719
-0.885052
-0.87
-0.89132
-0.883269
-0.899969
-0.443449
-0.895231
-0.681672
-0.9175
-0.958687
-0.897801
-0.914866
-0.884933
-0.452465
-0.974553
-0.861882
-0.86217
-0.814067
-0.922245
-0.456315
-0.19304
-0.89324
-0.765121
-0.917987
-0.87313
-0.945712
-0.888234
-0.917519
-0.816233
-0.857184
-0.902899
-0.550169
-1.01776
-0.920201
-0.93106
-0.0554184
-0.904854
-0.89718
-0.897097
-0.35298
-0.599817
-0.927285
-0.928078
-0.0724944
-0.530853
-0.856528
-0.903355
-0.727506
-0.280084
-0.335022
-0.812304
-0.900052
-0.0717549
-0.436357
-0.077687
-0.885928
-0.911931
-0.441797
-0.881011
-0.263591
-0.944012
-0.876314
-0.0713948
-0.440067
-0.840881
-3.02552
-0.906647
-0.837276
-0.890941
-0.900498
-0.263236
-1.18096
-0.85837
-0.0706721
-0.442923
-0.0286513
-2.83792
-0.942854
-0.902764
-0.838461
-0.907149
-0.891518
-0.260961
-0.463241
-0.846296
-0.0675733
-0.445403
-0.0295275
-0.210822
-1.34769
-0.0302507
-0.856341
-0.902378
-0.883761
-0.969231
-0.909292
-0.190085
-0.83952
-0.858097
-0.855613
-0.02932
-1.38444
-0.930397
-0.827105
-0.953705
-0.860765
-0.70001
-0.944168
-0.454449
-0.859916
-0.111647
-0.905303
-0.819712
-0.808617
-0.0280371
-1.10894
-2.12436
-0.00827944
-0.635568
0.0530822
-0.878993
-0.854926
-0.874614
-0.872415
-0.896253
-0.366672
-0.89127
-0.603413
-0.915528
-0.96205
-0.894386
-0.912893
-0.853564
-0.909575
-0.985404
-0.839723
-0.828018
-0.741139
-0.930854
-0.915964
-0.150327
-0.88668
-0.698319
-0.888821
-0.801014
-0.96886
-0.874076
-0.928532
-0.899404
-0.817246
-0.904773
-0.441573
-0.965169
-0.919902
-0.956902
-0.89318
-0.903368
-0.897955
-0.885965
-0.284685
-0.443643
-0.93196
-0.956497
-0.0587335
-0.343558
-0.902164
-0.911562
-0.634339
-0.224963
-0.264812
-0.689723
-0.912714
-0.0597216
-0.256142
0.0204483
-0.87194
-0.904844
-0.362127
-0.913544
-0.210872
-0.961724
-0.875569
-0.0593579
-0.301962
-0.676981
-2.85256
-0.904495
-0.786693
-0.91679
-0.877539
-0.208788
-1.14923
-0.847697
-0.0576611
-0.329252
-0.0215687
-1.9105
-0.97832
-0.898497
-0.780151
-0.885927
-0.833544
-0.20406
-0.330227
-0.828915
-0.0536976
-0.343652
-0.0235444
0.011523
-1.24793
-0.233657
-0.82583
-0.898577
-0.825951
-0.977566
-0.905848
-0.144814
-0.817805
-0.828003
-0.825191
-0.0240659
-1.72254
-0.95997
-0.798582
-1.01085
-0.83053
-0.614639
-0.941307
-0.912944
-0.824694
-0.895565
-0.901311
-0.765098
-0.754865
-0.02327
-2.93812
-2.20258
-0.784157
-0.312408
0.121636
-0.89031
-0.900937
-0.906128
-0.950504
-0.746233
-0.892047
-0.795469
-0.931785
-0.911034
-0.0210313
0.257589
-2.42018
-0.00652459
-1.65596
-0.614411
0.173043
-0.889722
-0.896242
-0.846639
-0.856576
-0.8881
-0.300135
-0.884584
-0.523676
-0.913136
-0.944361
-0.889198
-0.910451
-0.921507
-0.912648
-0.975133
-0.810458
-0.912584
-0.917014
-0.937859
-0.920012
-0.119121
-0.900295
-0.906659
-0.830862
-0.686208
-1.0017
-0.854604
-0.947955
-0.896464
-0.759993
-0.90678
-0.355099
-0.811094
-0.917897
-1.00042
-0.890795
-0.904435
-0.897543
-0.860399
-0.229435
-0.338461
-0.938826
-1.00334
-0.0444851
-0.0870163
-0.899161
-0.909093
-0.534963
-0.180148
-0.212164
-0.570786
-0.93406
-0.0475024
-0.144319
-0.529937
-0.850087
-0.891788
-0.295402
-0.910752
-0.169023
-0.989912
-0.876613
-0.0482434
-0.196313
-0.444003
-2.96065
-0.902044
-0.913464
-0.914609
-0.844679
-0.166982
-0.932162
-0.834663
-0.0470368
-0.231028
-0.8676
-2.26899
-1.04151
-0.891054
-0.706198
-0.854544
-0.758669
-0.161612
-0.253545
-0.807094
-0.0435787
-0.250513
-0.0175209
-0.0240864
-0.735895
-0.0411719
-0.784824
-0.888876
-0.7517
-0.964597
-0.900417
-0.900104
-0.79081
-0.789598
-0.786561
-0.0187649
-1.61431
-1.01782
-0.765586
-1.44509
-0.787637
-0.527693
-0.917842
-0.916562
-0.922368
-0.895798
-0.894741
-0.700598
-0.692063
-0.0186767
-2.41572
-2.02574
-0.74258
-0.646905
0.278093
-0.909536
-0.903672
-0.908597
-0.969939
-0.925428
-0.890984
-0.915921
-0.901676
-0.876703
-0.0172595
-0.0863872
-2.56986
-0.730933
-1.60694
-0.46317
-0.640915
-0.838967
-0.890892
-0.909048
-0.736642
-0.922338
-0.887579
-0.921541
-0.92489
-0.923188
-0.84299
-1.06659
0.0552953
-0.00489398
-2.62587
-0.236732
-1.49236
-1.96687
-0.8856
-0.894122
-0.805105
-0.835038
-0.872444
-0.241434
-0.874033
-0.445924
-0.90878
-0.888919
-0.881646
-0.90603
-0.922141
-0.917327
-0.922266
-0.898345
-0.9121
-0.918849
-0.934246
-0.926785
-0.0950659
-0.896851
-0.9069
-0.745136
-0.556682
-1.03541
-0.91195
-0.980359
-0.891014
-0.688318
-0.90895
-0.286877
-0.609064
-0.911487
-1.06629
-0.888239
-0.902114
-0.895362
-0.811901
-0.182957
-0.267658
-0.946171
-1.06816
-0.885924
-0.0674938
-0.894093
-0.9061
-0.443534
-0.142436
-0.168566
-0.923167
-0.960535
-0.0357134
-0.096093
-0.209943
-0.81874
-0.872197
-0.238557
-0.906672
-0.133699
-1.03648
-0.874575
-0.0377477
-0.129686
-0.699373
-3.29346
-0.906823
-0.913925
-0.91179
-0.924368
-0.133221
-0.652173
-0.814743
-0.0376019
-0.15748
-0.85389
-2.4134
-1.12456
-0.878702
-0.624179
-0.923248
-0.924273
-0.128853
-0.192812
-0.777152
-0.0352834
-0.174284
-0.844508
-0.0362744
-0.708863
-0.0576043
-0.734204
-0.868614
-0.920065
-0.910632
-0.891677
-0.901715
-0.755812
-0.913894
-0.912381
-0.0138162
-1.68685
-1.12315
-0.725431
-1.451
-0.732513
-0.445793
-0.860878
-0.922438
-0.922552
-0.896111
-0.8844
-0.919289
-0.916994
-0.0143416
-2.12803
-2.11306
-0.693114
-0.29673
0.230657
-0.907056
-0.901579
-0.911929
-0.9837
-0.928022
-0.889098
-0.914736
-0.842365
-0.817531
-0.0137102
-0.0846998
-2.16629
-0.676616
-1.67805
-0.256845
-0.327893
-0.802191
-0.91931
-0.892363
-0.577871
-0.821402
-0.883858
-0.923327
-0.932364
-0.929985
-0.800837
-0.75008
0.0582239
-0.669698
-2.79168
-0.137403
-1.51639
-1.93311
-0.675475
-0.91877
-0.543041
-0.278496
-0.941544
-0.880617
-0.776686
-1.12392
-1.09551
-0.911598
-0.260418
-1.65243
-0.00347288
-3.59254
-0.180704
-2.88923
-1.95321
-0.466994
-0.878816
-0.891645
-0.750405
-0.899141
-0.845549
-0.89914
-0.858565
-0.904378
-0.901035
-0.792984
-0.897265
-0.898212
-0.92401
-0.924412
-0.821302
-0.895266
-0.911333
-0.922106
-0.902496
-0.937596
-0.0753085
-0.89153
-0.906451
-0.645347
-0.444504
-1.04558
-0.909052
-1.03014
-0.881596
-0.608864
-0.910505
-0.230283
-0.449282
-0.897155
-1.17143
-0.886803
-0.899269
-0.889859
-0.735697
-0.142681
-0.21253
-0.94918
-1.12663
-0.88025
-0.0617991
-0.885502
-0.902076
-0.365078
-0.109957
-0.130259
-0.927259
-0.967836
-0.874831
-0.0729291
-0.26778
-0.777413
-0.917423
-0.18898
-0.899858
-0.102776
-1.0805
-0.853091
-0.0281412
-0.0908953
-0.71116
-2.44519
-0.904185
-0.914636
-0.906806
-0.925093
-0.104622
-0.461214
-0.777036
-0.0290488
-0.1081
-0.838451
-1.6663
-1.29327
-0.859958
-0.906033
-0.924024
-0.926815
-0.102244
-0.90533
-0.731775
-0.0279709
-0.118622
-0.822255
-0.0350845
-0.262794
-0.315623
-0.901636
-0.832243
-0.922262
-0.811289
-0.878457
-0.904422
-0.70763
-0.912309
-0.910502
-0.813302
-1.59729
-1.28579
-0.669043
-1.01509
-0.667849
-0.370375
-0.769695
-0.931718
-0.923239
-0.897619
-0.869236
-0.92057
-0.917754
-0.0104589
-1.50441
-2.04361
-0.631566
-0.00134479
-0.181763
-0.903521
-0.907106
-0.916525
-0.969142
-0.933072
-0.887004
-0.912377
-0.755942
-0.736466
-0.0104303
0.0426869
-2.29413
-0.613127
-1.88864
-0.262365
-0.648965
-0.905711
-0.918189
-0.849912
-0.44609
-0.69489
-0.878786
-0.926214
-0.944343
-0.94078
-0.747728
-0.985297
-0.417733
-0.60479
-2.49809
-0.311838
-1.3752
-1.96854
-0.901744
-0.908871
-0.443804
-0.222392
-0.959081
-0.873281
-0.668647
-1.17835
-1.12617
-0.891977
0.0435156
-1.69616
-0.91261
-3.51903
-0.0810726
-2.7482
-1.95464
-0.35813
-0.741279
-0.914122
-0.235755
-0.137543
-1.06632
-0.870542
-0.964344
-0.475474
-0.473066
-0.917183
-0.199699
-2.83564
-0.767742
-0.588451
-0.149774
-2.36119
-2.25623
-0.19741
-4.05008
-0.868735
-0.892839
-0.685599
-0.897097
-0.804185
-0.901823
-0.837465
-0.906557
-0.889354
-0.675819
-0.893538
-0.886443
-0.92582
-0.934401
-0.694321
-0.889528
-0.908784
-0.926493
-0.822745
-0.954372
-0.0583882
-0.883346
-0.904251
-0.546084
-0.3572
-0.976096
-0.904312
-1.10955
-0.866482
-0.527631
-0.909174
-0.181116
-0.344221
-0.871448
-1.2833
-0.888537
-0.904035
-0.878187
-0.638356
-0.887918
-0.164675
-0.939982
-1.06982
-0.873654
-0.0606892
-0.871787
-0.914429
-0.297926
-0.895809
-0.890463
-0.934255
-0.896302
-0.864373
-0.0630274
0.0142742
-0.726911
-0.916823
-0.897575
-0.889014
-0.888106
-1.09562
-0.776402
-0.858889
-0.0701373
-0.53152
-2.72214
-0.900748
-0.914462
-0.898259
-0.92713
-0.0798249
-0.343257
-0.702589
-0.0214723
-0.0779581
-0.821985
-0.928492
-1.52971
-0.834227
-0.907008
-0.926245
-0.931839
-0.0796913
-0.908241
-0.66064
-0.0214272
-0.0819571
-0.795788
-0.0273816
-0.0451511
-0.354582
-0.90025
-0.775827
-0.926427
-0.687607
-0.860098
-0.909856
-0.639501
-0.909096
-0.906672
-0.780765
-2.04862
-1.50872
-0.580421
-0.0404944
-0.597135
-0.895154
-0.66098
-0.945679
-0.922841
-0.901944
-0.848576
-0.92226
-0.918253
-0.77401
-1.97188
-1.96725
-0.551292
-0.0242256
0.00969654
-0.897496
-0.90459
-0.922175
-0.89174
-0.940911
-0.885651
-0.907167
-0.656302
-0.644675
-0.00754268
-0.00251744
-2.50641
-0.537851
-1.99056
-0.0572409
-0.342662
-0.904233
-0.917169
-0.771281
-0.351185
-0.572454
-0.872785
-0.929483
-0.962856
-0.956977
-0.686131
-1.33145
-0.428196
-0.531868
-3.20941
-0.0724986
-1.39489
-1.92583
-0.901149
-0.887019
-0.361894
-0.173732
-0.986864
-0.863788
-0.562515
-1.12997
-1.05506
-0.85451
0.00638861
-1.61045
-0.912377
-3.21275
-0.0201686
-2.84981
-1.96424
-0.28415
-0.673527
-0.896777
-0.186307
-0.888792
-0.872937
-0.858594
-0.993452
-0.324853
-0.330387
-0.920833
-0.585092
-3.15987
-0.698132
0.00291079
-0.0817876
-2.48183
-2.00397
-0.157521
-3.89881
-0.910291
-0.907751
-0.896421
-0.887245
-0.261693
-0.902689
-0.953002
-1.6701
-1.58879
-1.02109
-0.830973
-0.565152
-0.9228
-2.01004
-0.121318
-3.14628
-1.7347
-0.913625
-2.8188
-1.65947
-0.889503
-0.903811
-0.89491
-0.747523
-0.899463
-0.896445
-0.904941
-0.920225
-0.561512
-0.887601
-0.91517
-0.924772
-0.946758
-0.571472
-0.879695
-0.901938
-0.930244
-0.696795
-0.980439
-0.0437843
-0.871657
-0.898157
-0.908032
-0.287386
-0.805162
-0.896166
-1.23748
-0.844053
-0.899937
-0.900089
-0.890093
-0.270737
-0.832628
-1.2641
-0.896141
-0.901164
-0.856167
-0.536982
-0.88699
-0.894191
-0.908497
-0.734191
-0.867122
-0.057329
-0.851605
-0.912122
-0.238979
-0.897228
-0.889924
-0.945262
-0.651946
-0.851748
-0.0567347
-0.0140452
-0.90055
-0.916416
-0.899996
-0.873518
-0.886522
-1.00838
-0.614413
-0.842074
-0.0582477
-0.187173
-3.07149
-0.895995
-0.910984
-0.885582
-0.929108
-0.884786
-0.260802
-0.579338
-0.837457
-0.0600971
-0.803419
-2.12356
-1.54526
-0.904205
-0.907642
-0.928653
-0.939876
-0.0602777
-0.913241
-0.558075
-0.0157127
-0.0594809
-0.76386
-0.897488
-0.272762
0.0406665
-0.896871
-0.700897
-0.932634
-0.567656
-0.914146
-0.920343
-0.547971
-0.902598
-0.899255
-0.741498
-1.6136
-1.52841
-0.4515
0.362906
-0.906243
-0.896026
-0.553972
-0.965419
-0.918549
-0.911105
-0.908574
-0.923377
-0.91732
-0.730403
-1.65852
-2.42031
-0.449421
-0.0278454
-0.149181
-0.887648
-0.901392
-0.927269
-0.74455
-0.950251
-0.886115
-0.896703
-0.557517
-0.552769
-0.911574
-0.0240054
-2.62387
-0.449912
-1.80425
-0.332141
-0.624167
-0.901285
-0.914494
-0.662016
-0.279575
-0.922215
-0.866257
-0.930904
-0.991053
-0.979502
-0.914951
-1.34427
-0.0253418
-0.45077
-2.93103
0.0517158
-1.72352
-1.85887
-0.898866
-0.850226
-0.293615
-0.891808
-1.031
-0.852162
-0.922625
-0.913132
-0.860071
-0.796028
-0.0159802
-1.65657
-0.910684
-3.0688
0.00335522
-2.87063
-1.86055
-0.22658
-0.599256
-0.860441
-0.889196
-0.887997
-0.630862
-0.843468
-1.03816
-0.246859
-0.252635
-0.926601
-0.358722
-3.17773
-0.621586
-0.0150376
-0.0402352
-2.20576
-2.45787
-0.121261
-3.96014
-0.907384
-0.908843
-0.898403
-0.885546
-0.200804
-0.89852
-0.663577
-1.56143
-1.53277
-1.0567
-0.808198
-0.53461
-0.927075
-1.90881
-0.072152
-3.09536
-1.72894
-1.41544
-2.68292
-0.965457
-0.71702
-0.880084
-0.896606
-0.898144
-0.908432
-0.184803
-0.947349
-0.951421
-0.686481
-0.78811
-2.43008
-0.846592
-4.11909
-0.0919226
-2.75963
-0.898846
-1.25455
-3.65699
-0.0217755
-0.0439774
-0.895673
-0.678454
-0.905412
-0.892776
-0.909052
-0.919112
-0.914952
-0.878501
-0.913678
-0.916549
-0.95694
-0.920466
-0.864099
-0.887397
-0.929156
-0.561112
-1.01331
-0.900218
-0.899776
-0.884758
-0.910157
-0.227464
-0.604821
-0.882942
-1.36091
-0.813288
-0.900581
-0.875123
-0.890023
-0.209952
-0.782086
-0.830372
-0.912259
-0.897204
-0.819095
-0.44537
-0.884642
-0.894819
-0.84776
-0.444975
-0.861759
-0.0504782
-0.82437
-0.909318
-0.890951
-0.894251
-0.888463
-0.96235
-0.429215
-0.837192
-0.0500569
-0.0328582
-0.898989
-0.914519
-0.897383
-0.918234
-0.883424
-0.817897
-0.428192
-0.821432
-0.0496724
-0.544018
-2.92287
-0.906731
-0.900298
-0.920318
-0.928127
-0.880398
-0.910775
-0.431755
-0.812893
-0.048771
-0.776183
-2.078
-1.53956
-0.901899
-0.907237
-0.928411
-0.949981
-0.898123
-0.922362
-0.436529
-0.907808
-0.0458724
-0.722004
-0.895442
-0.0677601
-0.0842765
-0.890075
-0.615509
-0.939406
-0.917999
-0.911614
-0.938922
-0.439846
-0.890557
-0.886105
-0.692914
-1.91753
-1.49976
-0.296074
0.230033
-0.907172
-0.895826
-0.911538
-0.986815
-0.906493
-0.927088
-0.905147
-0.921584
-0.912574
-0.678369
-1.18063
-2.38754
-0.334175
-0.0224024
-0.0222149
-0.87336
-0.910869
-0.926952
-0.580566
-0.956223
-0.889036
-0.878203
-0.921243
-0.919321
-0.90954
-0.0302373
-2.30464
-0.353876
-1.88807
-0.0761946
-0.35417
-0.895343
-0.907936
-0.5468
-0.219144
-0.92623
-0.859016
-0.926097
-1.02519
-1.00303
-0.915248
-0.866519
-0.0451714
-0.36421
-3.0496
0.0301907
-1.78665
-1.70125
-0.893632
-0.799885
-0.234228
-0.892031
-1.06994
-0.837886
-0.926605
-0.64759
-0.629769
-0.719814
-0.0256234
-2.17483
-0.906117
-2.56219
0.00586969
-2.92143
-1.55271
-0.176962
-0.522778
-0.801234
-0.888973
-0.885954
-0.457252
-0.824661
-1.07434
-0.186341
-0.191668
-0.935448
-0.385324
-3.15552
-0.543206
-0.0183877
-0.019867
-2.61593
-2.12855
-0.906942
-3.90577
-0.902278
-0.908248
-0.895578
-0.882184
-0.902214
-0.891822
-0.464364
-1.54912
-1.51637
-1.06079
-0.782255
-0.27483
-0.929003
-1.80718
-0.0411747
-3.28944
-1.65105
-1.14933
-3.00504
-1.8135
-0.625425
-0.919622
-0.893549
-0.8997
-0.901497
-0.910448
-0.983313
-0.988358
-0.468048
-0.751289
-2.17562
-0.716519
-3.81194
-0.0552213
-2.99595
-0.779052
-1.51421
-3.69886
0.939904
-0.0855526
-0.929532
-0.916331
-0.891601
-0.911002
-0.828814
-0.45219
-0.227998
-1.37786
-0.734518
-3.66451
-0.283794
-4.71218
-0.818349
-3.28545
-4.03139
0.00672697
0.454561
1.49552
0.0767519
0.0428539
-0.886314
-0.90691
-0.918114
-0.918184
-0.865567
-0.911832
-0.896139
-0.954144
-0.924339
-0.841206
-0.861668
-0.916339
-0.447652
-1.03983
-0.896157
-0.896281
-0.859707
-0.91295
-0.893652
-0.45317
-0.863301
-1.3161
-0.774076
-0.900086
-0.824459
-0.888921
-0.899053
-0.923335
-0.468737
-0.935833
-0.89161
-0.763861
-0.366359
-0.881048
-0.895292
-0.76228
-0.259099
-0.857855
-0.0412175
-0.901421
-0.904922
-0.891297
-0.89998
-0.88656
-0.988866
-0.26002
-0.820047
-0.0421873
-0.0409081
-0.895238
-0.90854
-0.903508
-0.916463
-0.879023
-0.611238
-0.278032
-0.796168
-0.0419155
-0.332849
-2.50222
-0.903886
-0.877433
-0.91909
-0.919813
-0.874082
-0.91471
-0.302035
-0.782735
-0.0404143
-0.721441
-1.58122
-1.54704
-0.89778
-0.903997
-0.921077
-0.957551
-0.894446
-0.938442
-0.321737
-0.904265
-0.0370317
-0.660603
-0.895341
-0.0803958
0.078172
-0.877737
-0.52919
-0.94232
-0.921622
-0.907632
-0.969151
-0.3332
-0.870501
-0.864977
-0.629992
-1.58137
-1.52627
-0.15453
0.385149
-0.905794
-0.894227
-0.914253
-0.998939
-0.882648
-0.950471
-0.899317
-0.912799
-0.900264
-0.61526
-0.732037
-2.79106
-0.223576
-0.903807
0.0453639
-0.908822
-0.908231
-0.911483
-0.449916
-0.950429
-0.893157
-0.849299
-0.924947
-0.922597
-0.905387
-0.0279056
-2.35915
-0.259348
-2.74603
-0.12485
-0.597757
-0.884182
-0.895458
-0.446217
-0.896115
-0.933081
-0.849089
-0.90867
-1.04916
-1.01402
-0.914714
-0.889876
-0.0454091
-0.278069
-3.37517
0.0110338
-1.74642
-1.63135
-0.883308
-0.916902
-0.891878
-0.891589
-1.07784
-0.818955
-0.933418
-0.464071
-0.46323
-0.634686
-0.0268649
-2.22359
-0.896346
-3.33974
0.000836669
-3.04462
-1.5024
-0.906957
-0.905597
-0.723269
-0.887526
-0.882939
-0.345948
-0.800547
-1.07502
-0.91207
-0.912919
-0.947995
-0.190207
-2.75869
-0.912865
-0.0149408
-0.0121875
-3.15302
-1.82532
-0.908298
-3.57299
-0.893591
-0.903012
-0.901624
-0.877282
-0.904595
-0.881668
-0.343934
-0.98255
-0.978115
-0.980207
-0.748666
-0.00904513
-0.922993
-1.87607
-0.024128
-3.48316
-1.6832
-0.505144
-3.30522
-1.3368
-0.53232
-0.918167
-0.898767
-0.902912
-0.889204
-0.914151
-1.03396
-1.03778
-0.338726
-0.705814
-2.24753
-0.57885
-3.6904
-0.0322325
-2.95794
-3.33815
-1.40294
-1.56614
0.520926
0.149246
-0.922157
-0.914187
-0.892511
-0.888038
-1.33132
-0.161151
-0.685256
-1.15978
-0.68329
-3.04222
-0.221693
-4.44053
-0.761963
-3.39897
-3.38708
-0.297879
0.443539
1.70009
0.151041
-0.0795352
-0.914358
-0.878556
-0.954857
-1.10671
-2.01863
-1.50712
-0.931213
-0.67264
-1.45785
-0.912658
-4.52295
-0.915127
-0.0309452
0.0868492
-1.47757
-0.00971388
-0.211196
-0.00299548
-0.980836
-3.28436
-0.897137
-0.907928
-0.860162
-0.917778
-0.930946
-0.810072
-0.822823
-0.882945
-0.358996
-1.0317
-0.889712
-0.890585
-0.819066
-0.916429
-0.894497
-0.349902
-0.836738
-0.819012
-0.899756
-0.89769
-0.743693
-0.887056
-0.900878
-0.924565
-0.276436
-0.949876
-0.903543
-0.691765
-0.296984
-0.876114
-0.896422
-0.665773
-0.188615
-0.852297
-0.0311219
-0.898746
-0.898451
-0.890551
-0.896521
-0.884653
-1.01615
-0.18473
-0.797077
-0.0336035
-0.0403144
-0.887866
-0.89536
-0.900488
-0.91407
-0.873486
-0.459381
-0.195381
-0.763684
-0.0342404
-0.340174
-3.46495
-0.899869
-0.838083
-0.917849
-0.899215
-0.865865
-0.921504
-0.214385
-0.745231
-0.0332495
-0.60964
-0.968621
-1.67163
-0.890292
-0.894568
-0.901434
-0.954138
-0.888606
-0.965206
-0.232717
-0.898197
-0.0304305
-0.567699
-0.900783
-0.424364
-0.217206
-0.857291
-0.446803
-0.933774
-0.927756
-0.900562
-1.01348
-0.243987
-0.84048
-0.83421
-0.547362
-1.98663
-1.76712
-0.0656024
0.465713
-0.908203
-0.89001
-0.918376
-0.975421
-0.844747
-0.973627
-0.889641
-0.891515
-0.875756
-0.538196
-1.55546
-2.69452
-0.13451
-0.903627
0.0146832
-0.906605
-0.904889
-0.866185
-0.354449
-0.921568
-0.891407
-0.809127
-0.931126
-0.927771
-0.897491
-0.0215735
-1.88069
-0.176125
-2.70358
-0.390738
-0.351391
-0.865151
-0.876504
-0.363076
-0.89741
-0.94386
-0.830443
-0.871689
-1.03355
-0.985075
-0.912047
-0.952207
-0.0356745
-0.199168
-3.27373
-0.00185087
-1.79934
-1.38943
-0.864994
-0.917846
-0.892396
-0.890974
-0.986154
-0.79051
-0.944212
-0.347768
-0.353474
-0.548649
-0.0233621
-2.04968
-0.878318
-3.16149
-0.00509062
-2.95144
-3.01789
-0.908952
-0.907214
-0.63622
-0.885009
-0.879036
-0.265042
-0.76735
-0.97819
-0.915976
-0.916883
-0.963538
-0.0238846
-2.608
-0.914585
-0.897886
-0.0104925
-2.84232
-1.89458
-0.911143
-3.30584
-0.880742
-0.88791
-0.898365
-0.870849
-0.908406
-0.867367
-0.260778
-1.54956
-1.50374
-0.805724
-0.694037
-0.0280905
-0.899717
-1.86229
-0.015909
-3.49389
-2.2688
-0.931409
-3.15786
-2.07007
-0.446345
-0.916442
-0.895164
-0.909316
-0.869486
-0.920898
-1.11108
-1.11636
-0.261617
-0.644948
-2.1423
-0.464196
-4.76821
-0.0193633
-3.09768
-2.83848
-1.48416
-1.43436
1.22959
0.177284
-0.902438
-0.911014
-0.895538
-0.848401
-1.49932
-0.140317
-0.445765
-1.53603
-0.6206
-3.41064
-0.910976
-4.33217
-0.693727
-1.80638
-3.86812
-0.0139892
1.07619
1.48631
0.332827
0.372515
-0.892299
-0.874657
-0.96668
-1.2269
-2.01678
-1.72548
-0.952865
-0.609093
-0.97422
-0.917877
-4.13119
-0.917213
0.25963
0.703829
-1.48639
-0.00835461
-0.250989
-0.690052
-1.10564
-3.80493
-0.859137
-0.46005
-0.514289
-0.0827824
-0.903686
-0.678349
-0.911357
-0.546583
-1.59628
-1.12994
-0.879414
-0.921712
0.419216
-2.78889
-2.02327
-0.206276
-0.00248954
-2.9208
-3.12498
-5.99782
-0.770591
-0.772077
-0.823139
-0.28531
-0.940457
-0.880239
-0.881441
-0.761796
-0.919743
-0.89486
-0.271151
-0.916479
-0.478236
-0.897404
-0.891632
-0.642373
-0.884329
-0.903437
-0.92695
-0.205606
-0.898427
-0.900403
-0.609416
-0.893969
-0.868996
-0.899043
-0.924747
-0.154958
-0.832474
-0.878756
-0.893852
-0.916547
-0.88877
-0.891183
-0.88273
-1.03003
-0.148609
-0.759731
-0.0251336
-0.0344542
-0.874789
-0.872425
-0.896153
-0.909305
-0.866554
-0.350616
-0.15096
-0.718302
-0.0267455
-0.040839
-2.84797
-0.893637
-0.781717
-0.914814
-0.863101
-0.855456
-0.933255
-0.160053
-0.696581
-0.026633
-0.445289
-2.01571
-1.69706
-0.877456
-0.873939
-0.865901
-0.927523
-0.900889
-1.00577
-0.170481
-0.888191
-0.0248011
-0.444161
-0.918213
-0.423255
0.0445273
-0.82639
-0.898211
-0.90336
-0.93749
-0.888605
-1.07097
-0.176311
-0.799915
-0.793411
-0.44583
-1.91239
-1.76571
-0.0187617
0.479956
-0.90614
-0.880629
-0.924323
-0.88423
-0.794249
-0.96845
-0.874646
-0.852395
-0.835095
-0.447693
-1.87095
-2.55363
-0.0732399
-0.906929
-0.00220755
-0.903199
-0.900312
-0.780906
-0.278199
-0.860967
-0.864034
-0.758861
-0.940659
-0.935328
-0.88377
-0.8885
-1.84883
-0.111008
-2.82974
-0.426717
-0.00322957
-0.835889
-0.919872
-0.29175
-0.898781
-0.960655
-0.789967
-0.811875
-0.936525
-0.888843
-0.904873
73.3711
79.1664
88.6639
-0.988196
26.418
24.467
67.6639
70.3862
32.5254
-0.90501
35.5823
50.4641
-3.8586e-05
-1.17606e-05
-0.0019574
-0.133305
-0.00137788
-0.000922544
-3.47172
-0.00875792
-2.13292
-1.30524
-0.835603
-0.919707
-0.892032
-0.890466
-0.801342
-0.743689
-0.960458
-0.265373
-0.27247
-0.917098
2.11263e-05
-0.000525033
-0.000325703
-0.0177985
-5.23044
-30.1856
12.6298
52.1385
-0.000171444
-6.53109e-05
-2.14798
9.85295
1.46836
53.8752
11.2931
14.0089
2.97108
-0.848979
3.7818
70.7764
-0.000590073
-1.55974
-0.00922287
-2.97124
-2.75862
-0.912421
-0.905756
-0.909371
-0.881134
-0.873674
-0.907878
-0.718564
-0.796113
-0.92315
-0.924171
-0.976502
-0.19489
-1.44892e-06
83.4551
57.3096
60.702
-2.00029
-7.97897
75.371
128.243
98.4403
6.99316
93.5813
-0.916174
55.2081
-4.65335
67.121
-0.895657
-0.0107687
-2.29072
-1.20684
-0.917486
-3.63578
-0.912173
-0.855721
-0.893485
-0.862368
-0.915259
-0.906039
-0.914803
-1.54721
-1.42939
-0.610739
-0.596124
-0.0300725
6.63295
-0.000546291
-0.000340046
-0.000197234
-0.848572
72.8205
-0.000103874
-4.65374e-05
-1.86216
-0.012388
-3.18825
-2.1957
-0.75502
-3.31381
-0.482887
-0.368555
-0.912672
-0.889496
-0.920543
-0.841001
-0.93323
-1.27621
-1.2835
-0.200081
-0.55941
-2.29897
-0.3743
-1.47281e-05
-4.81665
-0.0128946
-2.8378
-2.16202
-1.37289
-1.65478
0.258667
0.0644297
-0.86685
-0.905109
-0.900713
-0.791918
-0.945881
-0.115881
-0.443141
-1.40912
-0.542376
-2.63712
-0.91426
-4.34743
-0.618912
-1.81409
-0.819818
-0.0777602
0.926818
1.56133
0.291445
0.202786
-0.855354
-0.870017
-0.969379
-1.22826
-2.16834
-1.7515
-0.990383
-0.534731
-2.33148
-0.928098
-3.36993
-0.918031
0.250979
0.598414
-1.43798
-0.896896
-0.884171
-0.623709
-1.37887
-3.72467
-0.84751
-0.921078
-0.801272
-0.0632278
-0.905156
-0.232231
-0.908426
0.0494199
-1.35015
-0.749704
-0.798462
-0.968303
0.33314
-2.58848
-2.24005
0.427915
-0.610882
-2.95364
-4.09692
-5.65047
-0.990061
-1.53608
-1.85655
-1.64034
-1.51838
-0.914273
-1.68125
-1.12713
0.627622
-0.368096
-1.89312
-0.205416
-1.86116
-1.88972
-0.840085
-0.00195112
-3.44056
-1.8853
-5.88537
-1.53745
-0.867702
-0.691392
-0.920169
-0.895159
-0.904666
-0.914779
-0.301726
-0.892601
-0.878885
-0.539514
-0.87976
-0.907898
-0.929394
-0.167282
-0.679932
-0.895743
-0.525443
-0.894879
-0.857371
-0.903606
-0.928153
-0.12872
-0.766673
-0.869681
-0.885235
-0.914685
-0.885399
-0.903867
-0.879528
-0.997837
-0.123897
-0.691802
-0.862525
-0.0262392
-0.853576
-0.839538
-0.907803
-0.900118
-0.856826
-0.915891
-0.122674
-0.651265
-0.019814
-0.202854
-3.33405
-0.884626
-0.712742
-0.907774
-0.812971
-0.84163
-0.952605
-0.125192
-0.631238
-0.0205124
-0.262085
-1.81377
-1.72465
-0.857253
-0.836401
-0.815941
-0.867485
-0.896904
-1.06842