/*--------------------------------*- C++ -*----------------------------------*\
  =========                 |
  \\      /  F ield         | OpenFOAM: The Open Source CFD Toolbox
   \\    /   O peration     | Website:  https://openfoam.org
    \\  /    A nd           | Version:  7
     \\/     M anipulation  |
\*---------------------------------------------------------------------------*/
FoamFile
{
    version     2.0;
    format      ascii;
    class       volScalarField;
    location    "0";
    object      p;
}
// * * * * * * * * * * * * * * * * * * * * * * * * * * * * * * * * * * * * * //

dimensions      [0 2 -2 0 0 0 0];

internalField   nonuniform List<scalar> 
487909
(
-0.885793
-0.886652
-0.888295
-7.12315
-0.888295
-0.549357
-20.957
-0.0224024
-0.913506
16.78
-7.12315
-7.27417
-0.290062
-0.944012
-3.4178
-0.900937
-1.05351
-87.1281
-0.789598
-0.900052
-0.888295
-3.66451
-18.5466
0.146536
96.2105
-0.898964
228.081
-0.202854
19.0119
42.385
-1.54704
-44.3204
94.9653
3.77957
-6.16493
-0.549357
96.2105
-4.34743
-0.907098
-3.98056
0.505696
-0.921622
6.62267
-0.588451
2.12284
-3.65839
90.4334
-0.669043
-0.895538
-0.91471
-0.89741
-0.361894
8.18183
-0.876958
-0.982431
-0.90025
-20.957
-0.898964
2.85182
2.12284
5.34822
-89.9902
-0.907008
-0.837276
106.196
26.1162
-3.33818
-0.851817
-0.898802
-0.181317
-41.6915
1.21488
-0.915678
7.01564
-3.30737
5.98363
-3.95335
0.312457
-0.339305
-0.686542
-0.798205
-3.98572
-6.96852
71.5733
-0.0224024
228.081
-0.0539527
-3.65839
-0.915379
-0.925845
106.196
1.73492
-0.26002
-5.19955
71.5733
-0.973627
-0.907384
-0.990655
9.06885
0.224892
-0.917169
-24.9401
-2.2274
-6.79401e-05
32.5418
-0.719495
-0.897543
15.4542
-0.900943
-3.69406
-7.60051
-102.252
0.00794503
5.55009
-0.176483
-221.265
-2.27715
-1.1198
-8.60754
152.44
-0.913506
-0.202854
-4.31756
90.4334
-6.50508
5.60648
26.1162
-0.879023
-6.51148
0.0886897
-0.0224024
-0.901631
-0.359184
-2.95671
-59.3391
-6.79401e-05
-0.919534
-33.9108
-0.464422
99.5835
1.52468
-4.31756
-0.165448
70.379
69.2654
-0.794618
-0.0888023
-0.910897
-4.31756
369.721
-0.920362
-0.735278
-0.888748
1.31175
86.372
-9.36749
-0.914494
-3.69031
-32.2184
-0.889641
-0.801014
-0.267658
-3.58646
135.744
-1.2348
16.78
19.0119
28.8965
-0.669043
-1.6663
-1.78569
-3.33818
-0.959662
-0.901722
283.885
228.081
-0.897488
-6.8137
33.1902
-5.08444
32.5418
-0.905794
18.4532
1.89314
3.65676
10.248
90.4334
0.0639399
24.3108
-0.45447
-40.7968
-1.02109
13.4216
-0.165448
-0.000448392
-0.599817
-1.6989
-0.261454
335.66
76.6651
0.557151
-0.267658
0.897787
-0.908871
2.11912
-0.905234
112.033
0.14489
9.15227
6.49327
32.5418
1.9474
-0.902058
-0.897156
-2.50171
117.317
-10.5724
6.69482
0.000247075
12.0566
-7.12315
42.385
19.7382
-0.895538
37.4044
-45.7278
-0.851817
-80.7091
-3.77541
-96.0952
-0.0539527
-0.0240659
9.93229
-3.39897
0.0582041
-0.719495
-104.068
86.6277
44.5301
-8.38863
-28.8226
-6.50508
-0.770559
0.211507
-0.819818
-0.000151142
37.2351
11.4306
70.379
-0.917519
-11.0762
-0.0379924
-0.892739
-0.799934
-0.810334
2.23883
-3.58646
-0.824694
0.419216
-0.054756
-2.89346
-9.11253
-3.91094
7.77108
-0.550169
-0.905794
-0.0798249
41.1637
7.79325
-2.52353
9.19684
0.368117
5.67191
16.442
-0.930397
0.557151
-71.3063
0.202786
-0.990061
-4.53347
-51.2998
-0.200081
-0.93196
-6.22283
16.2094
4.43255
-7.27417
-1.54704
-0.542096
-0.91471
5.56667
-22.0989
-0.898802
5.0033
-1.0017
-0.482887
-3.65839
-0.28415
31.4361
-1.65203
18.4328
-0.897543
-5.47877
-9.64054
6.46667
-6.67573
-85.5366
5.60648
-2.64385
-3.16149
-0.901438
41.7745
-0.3743
2.9578
69.2654
53.3474
12.1438
-0.874076
-0.445516
-0.444975
-0.0380796
9.30616
135.744
8.67575
6.539
-73.1224
-2.06527
-0.00259534
5.86627
-4.46507
1.13068
18.4532
-47.519
-0.880815
9.00704
-0.900312
-6.64011
-0.908569
2.4661
-0.44609
-9.62132
-0.267658
-2.41531
-2.11713
341.598
-76.0853
-3.63578
-3.97579
-19.3588
9.44601
2.2051
4.63093
-7.12315
5.56506
-2.67883
98.6341
-3.30733
-2.8378
1.37268
8.33363
-2.65624
-0.800837
0.790409
-44.0263
-0.290062
-44.3204
-0.89918
-0.89741
107.841
35.0237
-0.181317
10.6631
39.7335
-1.56748
-0.915379
-9.57447
-1.12005
-9.52271
-3.85136
15.4542
3.2809
0.000122543
-1.11636
-0.461214
5.99585
26.1162
18.8136
-64.7165
-0.909833
-0.902018
-10.9647
-1.60228
-0.794618
216.277
9.95966
41.4386
-1.59628
-0.912893
-8.58348
41.9054
-1.2348
-17.4702
-1.22296
1.15267
-47.6828
13.7315
-32.2626
-5.28518
3.63604
1.89314
0.815265
-0.929463
-0.904941
109.368
-6.86371
-7.90798
-17.9439
-15.3533
3.87163
0.897787
-0.168566
-28.9013
-0.550034
180.312
-44.5408
-0.00489398
-5.45194
-1.36991
4.81997
-27.2598
42.385
-1.76188
-24.1876
-14.3894
-0.679932
-0.388751
-0.0987394
0.857718
-6.32453
-3.15446
21.1217
-3.58105
-28.8226
-0.0724944
165.792
-0.885546
-0.646607
0.860986
-18.466
325.987
-1.17835
7.52327
1.14462
-83.9294
26.8454
-0.944012
94.9653
-0.904941
-0.361894
-1.76188
-30.236
-41.6915
-1.17835
-0.912919
-0.906487
-0.925845
-1.93559
-0.707717
11.6892
0.209498
-0.900943
-0.873729
7.78601
-7.15546
-43.9592
9.82112
-0.879023
-119.566
-2.87502
9.9669
-0.00532084
-0.912492
-0.0470368
-0.0888023
-0.90595
84.8216
-2.74043
-24.1355
-0.0279056
20.3627
1.20964
16.78
12.9633
-0.90287
-5.45822
1.92269
-0.885052
-20.1802
1.45695
25.1811
3.65676
-0.960535
-3.22162
-5.41038
-0.71116
100.476
6.83707
8.08493
-1.86055
-1.39149
-0.908871
72.2478
-25.5544
-3.87223
-31.1391
100.834
-0.18473
-56.7957
58.2253
1.70724
8.39382
19.7382
-1.70483
-0.363076
-6.78766
-29.6808
-0.908377
-1.92228
66.6466
8.65675
-130.037
50.7396
-0.903807
-6.50508
-0.452465
-34.7089
-0.297926
-36.4917
1.67606
-2.9735
7.80933
-7.61155
-0.912259
-20.1002
-4.5353
76.3833
-2.89346
-0.256845
0.000534279
-1.21885
-0.101514
-0.198764
0.000188611
-0.878702
-0.917327
-5.48866
-19.4965
-0.0886755
-0.732714
-3.06062
-3.4178
3.77957
109.368
8.18183
-24.1876
10.3481
1.21488
7.52327
2.91045
-0.878203
106.196
-0.900943
-0.84751
9.84882
10.9299
-3.69406
20.3627
-1.74883
116.092
1.41058
-208.131
-6.51148
-1.86055
162.083
16.9224
0.258667
-2.77211
5.56308
-0.910897
-1.92228
-14.0297
6.32681
-6.28268
-0.903201
-31.676
88.9007
19.0119
-2.89346
-1.26282
-0.447433
-3.73449
169.468
117.159
-3.78177
-7.01235
10.248
10.3481
92.6986
-2.5757
2.54333
-0.66056
-0.68703
125.239
-0.652173
1.71548
2.11912
16.9224
94.0032
-15.4863
-28.3681
-6.83604
76.2032
-121.328
120.081
-15.8757
1.69694
-0.895538
-3.78177
7.30315
-0.897228
4.27462
-0.354582
-35.3521
2.38456
-5.73864e-05
10.9736
206.453
-1.17448
-0.770559
-121.328
-1.07138
-0.0052568
1.03542
-0.855259
-0.552164
13.2879
-6.81545
26.2334
14.9961
46.6308
-0.685256
-9.11253
-0.0052568
6.53352
-4.05008
-0.0150495
-0.835603
-3.26912
-0.91999
-0.309745
4.50918
2.25069
5.33431
-1.34769
9.9999
-51.2998
4.50918
-14.1144
-1.62313
34.8078
-0.915038
-9.3446
1.95081
-0.0933531
3.63587
1.61951
-1.4422
139.46
3.82048
-15.1235
-0.900937
-6.16493
-6.86371
-0.876958
-14.3894
63.3372
-0.915678
1.14462
-0.0950659
-11.3682
1.73492
-0.873729
-1.09005
-0.915891
72.4803
-7.60051
1.20964
-0.902067
-0.0379015
-2.74603
-3.54575
0.0886897
-1.39149
-0.901431
0.817382
-3.13856
-0.604821
-0.841203
-4.31756
66.6466
-0.907099
-42.0632
-0.92238
4.36969
-6.92186
-11.2487
28.8965
-0.256845
0.132615
-25.9289
38.2405
-0.912944
-3.38364
-140.382
2.24175
90.4334
1.21488
-2.70928
-4.55338
-0.534575
15.1585
-0.837584
307.296
-3.79241
-2.20886
-0.905234
0.258667
-8.9737
-2.30697
5.58564
9.88571
-2.36514
11.4938
40.4648
12.7075
11.9116
37.4044
-7.01235
-1.88133
-4.82142
93.3693
-2.17189
-5.22458
-29.7171
3.75305
0.000180129
-1.31169
67.3676
0.211507
120.081
-0.91407
-9.84349
2.96312
36.2011
-3.86461
-0.923968
-15.008
-24.5761
-20.3106
12.6078
10.285
-3.91094
1.03542
-0.182608
-0.0352834
-0.898989
-23.6292
17.9606
24.5006
-3.25653
-0.0314435
-0.757648
-2.94813
-1.32555
-0.652342
-0.200081
2.25069
40.082
-0.895362
-0.914212
-0.445403
-15.701
-0.68329
-0.79051
26.492
-64.7605
86.3609
-23.2028
45.057
-13.6546
18.4328
-0.900937
-0.914519
-1.57009
-6.40067
-0.958687
-11.2421
-17.6833
17.9476
199.424
69.4013
279.054
-1.19889
51.5484
6.79539
1.55912
-1.05351
-0.549357
-7.90798
-0.982431
-0.679932
6.79539
7.01564
-83.9294
-1.86229
-2.27687
-0.26002
7.78601
-0.450371
-79.9085
-0.744662
-102.252
16.78
-1.29991
-0.95903
-60.5254
-7.63782
-0.0224024
-0.908871
-0.237201
-84.1433
-0.55166
-0.552769
-1.54956
369.721
8.65675
-6.96951
-10.4075
-0.852395
-1.54944e-05
-0.910448
-0.872818
-0.669043
0.000534279
22.4724
7.30207
339.148
-0.547971
-2.58848
10.1389
-16.4865
0.0639399
7.52327
-19.047
21.7926
10.7117
-6.20201
-9.87029
0.933103
0.681396
-0.916525
112.033
-2.77211
-4.42711
-3.71499
0.39192
-0.86685
-0.887004
32.0045
17.2068
-0.061834
12.905
-45.7278
10.248
21.6956
73.2556
9.97279
-6.51474
9.58216
-0.905827
-4.84589
-1.41424
-4.67276
31.7955
-0.819818
-15.8757
-0.892557
-28.4188
11.2635
2.08599
0.00019321
-0.64959
-0.0253418
15.7374
5.5667
-20.8038
-8.1169
7.77108
-0.855259
8.97288
-27.2938
-0.885924
66.4966
-0.857253
-1.93863
1.39623
-15.7747
-10.81
-15.2609
-1.50139
-14.797
-0.93196
5.33431
-7.43836
70.6557
-0.917014
11.4574
85.0917
278.003
-0.954144
-2.07917
211.957
-21.694
-45.1025
-0.000325938
-2.53354
-0.897543
-6.16493
-0.913894
-0.906647
-1.06659
2.06071
-0.893591
-2.87063
8.85716
-10.7312
89.5938
-61.1673
6.0246
-8.54884
1.24501
27.9102
-0.0380796
-3.54575
-4.2241
1.67924
-0.918787
-0.836576
69.3528
-0.0732399
3.18616
5.08587
10.531
-10.6299
34.8204
21.5332
-3.45796
-9.29809
1.44314
-87.1281
96.2105
-17.9439
-0.90025
-0.388751
1.55912
-3.30737
26.8454
-0.95903
-53.0698
-5.19955
-7.15546
0.000534279
7.058
13.0968
0.00794503
12.9633
-2.77211
1.07447
-0.439417
27.5378
-0.901631
72.2478
-1.41424
-4.42063
-1.44543
-1.00334
15.0036
-0.920362
-130.037
-27.2938
-87.7576
-11.6957
-3.36993
-0.546084
-0.000144208
-1.6663
-1.21885
-0.954144
-1.15081
-44.8658
-0.934865
-0.463241
-0.0740686
49.1438
24.3108
2.91045
6.0246
6.411
10.1821
-1.82323
1.47088
1.35589
12.2494
8.45402
0.14489
5.56308
-9.29809
-0.664941
-0.301726
-29.0553
-0.898389
-23.5324
-2.095
-4.44652
18.1644
-0.851817
10.3481
-2.77211
-0.187173
242.489
-1.97378
5.18885
73.3306
9.29994
-0.894386
85.9471
327.775
-0.000151142
1.69694
-1.6663
-8.25695
3.85642
137.526
5.23688
-26.5797
-4.18598
0.209196
-4.58717
-18.745
27.3434
-0.550169
-0.552164
0.14489
-14.864
-21.2848
-2.14181
-6.25526
-2.71182
1.60125
-7.85855
17.7579
4.57386
-24.1692
121.032
-6.22283
-1.34769
9.29994
-2.78285
-0.940526
7.18869
-49.8982
-0.889503
1.48082
-5.13885
-68.2736
-5.65224
-3.06719
17.3131
71.5431
-5.47877
-6.86371
0.14489
-1.59729
2.16127
6.74941
24.2323
1.46855
-11.7227
-21.5955
11.0996
-14.2981
-13.5576
4.66682
60.628
10.9574
9.30616
0.0886897
-0.889503
-73.5056
11.0567
31.4483
177.158
-5.27576
197.386
-1.12713
-1.20404
-6.09289
10.7053
112.612
12.2849
-17.872
6.01219
-9.62132
38.2405
-14.2981
0.984617
-31.107
-0.350338
-32.7098
-4.12805
-0.998227
-4.47605
-6.41109
12.4287
78.0376
171.977
86.0275
32.5886
10.6874
0.00800655
-0.789598
-4.34743
-15.3533
-20.957
-0.0987394
-1.05351
5.98363
-0.944012
-60.5254
-4.85773
71.5733
-43.9592
22.4724
-0.343652
-0.914151
5.55009
-0.90287
-4.42711
-0.898893
-23.4066
-0.150811
-0.359184
-25.5544
-4.67276
-0.904666
-0.854544
-0.903606
-2.60365
-0.735278
50.7396
-0.885924
4.30185
-3.78817
27.581
-0.00612203
-25.329
-1.78569
-0.101514
-2.07917
13.2475
-1.65001
-0.706999
36.6459
9.57215
3.16432
-0.45447
-0.878203
-8.54884
12.5765
-11.1014
10.9871
-65.6473
-1.56202e-05
-39.4705
-4.37032
9.15227
-0.910897
1.44314
-5.87745
-1.01174
-0.867367
-104.269
-33.7413
-0.305268
7.6568
15.93
-80.7091
92.6986
1.07447
-4.41238
-0.917368
-0.924747
40.6596
-53.9564
-10.9859
-19.4925
-1.87655
14.7205
37.2351
-0.895538
-1.21885
-0.265373
21.6908
-0.346205
0.122674
-22.8242
-0.992729
-1.47653
-26.7086
0.161009
-46.4645
-0.905794
13.2879
5.56308
-0.877525
-59.7678
-8.2
-0.0495712
-0.897404
-43.4795
-0.751216
-0.951491
-2.07684
-1.92865
4.86652
16.2094
9.9999
-0.894386
2.90003
-8.94788
-0.740233
-2.42638
6.67329
18.8902
15.1149
9.13051
7.40439
-22.2664
-0.13355
32.7695
-9.64054
-0.876958
-14.864
-2.89344e-05
-2.33032
48.8225
-0.922141
5.83532
2.19206
-5.10962
25.4347
3.61076
8.60629
13.189
51.5453
4.31236
135.744
-1.39149
1.48082
13.1168
50.2934
152.086
-3.12963
58.7357
-0.902598
17.3991
-3.93875
2.82443
25.6651
109.483
104.561
0.790566
22.0391
-0.267658
-0.912944
-13.5576
8.15753
-1.12994
0.744499
12.7725
-0.89486
-5.39231
-5.73997
28.3628
-0.654776
-7.97329
87.4999
319.503
-15.1444
9.49505
-29.7173
-2.65624
9.88571
-17.872
-5.81523
-6.18397
-0.247803
-131.78
166.019
56.529
-0.527693
84.0432
-21.2416
-0.437875
-0.896007
-2.89699
11.5313
2.78396
20.1381
-2.05136
-0.900052
-0.907098
3.87163
-0.898964
0.857718
-0.549357
-3.95335
94.9653
-7.63782
-1.87655
-0.973627
9.82112
7.30207
-59.7678
-1.00108
-0.176483
-5.45822
-3.71499
15.1149
-0.913241
-0.474009
-2.95671
-3.87223
31.7955
13.189
-11.1523
-0.846639
-0.745231
-0.888748
-0.903807
66.4966
22.0391
0.806288
-0.892839
4.07826
3.77211
-3.33818
-0.198764
211.957
-2.65624
22.2712
-9.95656
-3.68134
-0.900907
-137.3
-40.7968
106.196
1.24501
-0.900052
1.95234
-0.885927
-0.46317
-0.84138
-6.72251
98.448
6.49327
-1.92228
-87.1281
-0.913241
16.8425
-0.915038
-0.921176
-0.278496
-0.232714
-0.882942
36.202
-3.77541
-2.5757
-0.439417
211.957
-0.0012069
-2.33944
-3.44056
11.1955
-4.26463
10.7883
6.0311
16.31
11.4306
-3.78177
-0.954144
-87.1281
-61.6058
-0.964344
-0.901823
16.7492
22.458
-24.9126
28.0981
0.0343092
-6.59905
-0.0798249
-6.81545
-9.29809
6.0311
-0.982189
112.001
-2.11424
-2.89958
-0.921504
-0.765121
-2.89345
-0.786561
-17.3105
-15.2403
4.43255
-51.2998
85.9471
-0.982189
-2.60787
-4.44661
-0.867902
-8.79319
-59.573
-42.5404
-2.05395
9.57168
51.7959
5.3198
10.9743
6.46667
-14.3894
-21.2848
-42.5404
0.230033
-5.37499
-0.0632278
1.07694
-47.8408
6.70574
6.88944
-34.51
-17.2646
2.85842
-0.910506
325.383
8.67575
-0.901431
-5.13885
2.85842
-20.321
-0.00611518
-26.5528
-0.00084243
-1.03355
-6.02189
-2.11807
-5.17936
-0.915974
105.775
1.77126
-17.8616
189.767
-2.41531
-3.38364
4.66682
189.767
0.316283
4.61384
21.7907
4.32083
71.0307
143.07
23.7087
17.954
4.29126
-3.53486
-76.6113
37.238
76.1367
-0.0208453
-0.800837
-2.36514
6.01219
-0.800837
9.11695
-6.19785
-0.925741
-5.43596
16.5192
-0.109957
60.962
-0.0376373
-4.66569
243.431
8.78421
12.5639
6.73232
2.42912
61.9709
3.2809
-0.91407
-0.789598
3.2809
-1.80377
-0.0512799
14.1795
-11.9741
31.8027
7.53194
-1.56839
22.7952
3.75582
-11.6808
7.4475
30.892
27.9613
-42.6059
-37.1972
12.7887
-3.98056
0.897787
2.85182
-6.32453
-7.90798
0.312457
-0.904941
-0.0224024
14.7205
-0.907384
-0.879023
339.148
-8.2
-20.2479
-221.265
1.92269
0.39192
9.13051
-0.922625
-0.772077
-59.3391
-31.1391
-0.819818
51.5453
2.33249
58.1437
-0.74455
1.31175
-6.50508
-0.857253
-0.267658
-0.566184
18.871
-2.37412
-2.59298
-0.959662
0.000188611
-21.694
9.88571
-2.63821
-19.6858
-2.11102
9.61546
13.5018
-1.02109
-0.900943
27.9102
-0.907098
-21.0168
-0.9069
-4.00265
99.7628
-1.89458
-16.949
32.5418
-14.0297
96.2105
-0.474009
-7.41285
34.2952
0.702844
0.243128
-7.51686
15.7516
55.447
-96.0952
2.54333
27.5378
-2.65624
-0.88812
21.4214
10.3907
19.6056
-20.4939
-0.899444
80.086
16.432
70.379
7.30315
-1.15081
-0.913241
27.79
-6.31986
45.4642
-27.2967
-16.6106
-11.0811
-1.00641
58.1313
-76.9851
41.1637
26.2334
-0.664941
16.31
-1.71185
-0.932059
99.2414
-0.865214
4.74458
-9.58368
-0.252378
-50.8763
24.8796
359.097
-7.27417
4.50918
327.775
112.001
41.4316
5.78931
-2.22361
7.37059
-0.889496
-4.4667
-14.8322
-14.7402
-1.40901
59.9489
69.7536
-6.67573
63.3372
-2.14181
-2.05395
-0.262646
-0.0100838
71.141
1.07539
22.4414
-0.727506
-0.651265
-9.6483
38.9457
-0.341537
-10.733
3.20497
6.539
0.817382
-68.2736
-0.910506
-0.872197
-0.0104303
-0.262085
-0.544491
11.7322
74.6769
-9.35263
10.5199
12.5559
-0.240795
32.9513
11.8209
4.84856
-2.11713
-140.382
60.628
-2.41531
-4.94335
0.187953
-0.891645
0.310361
-31.1871
9.53415
-0.96205
-43.1804
5.25494
9.7565
-5.21203
3.54768
-4.85295
73.5876
0.790409
11.4938
-9.62132
-2.36514
-1.87337
-0.343558
16.0697
-22.079
-2.33605
15.9897
-24.6054
344.781
16.4658
116.934
-16.7663
15.7446
-0.574212
-4.10658
-0.914852
0.000122543
-9.84349
-4.34743
-0.91407
-0.75758
2.78906
-7.64874
0.867409
-5.42906
18.6116
-81.2438
13.5543
-46.4714
192.71
-31.9931
11.0976
0.000132041
9.57808
-0.811094
-0.79222
-0.0314435
-0.150811
-3.98056
-11.8677
8.72713
-7.06844
-23.2529
52.7479
-41.695
-0.797077
216.464
-2.03893
-117.885
-0.0237196
2.5194
70.1035
-3.75738
-105.488
4.83311
16.6787
2.12284
-3.15446
-0.982431
-0.339305
-0.361894
-0.908871
37.2351
-0.990655
-119.566
-0.547971
-0.0495712
70.379
-2.27715
-0.885052
-0.86685
7.40439
99.2414
-0.761963
-6.79401e-05
100.834
-15.8757
4.31236
-14.7402
69.2336
-0.743564
86.372
-0.452465
-1.93863
-0.912944
3.20497
-0.919707
170.447
-0.896026
-0.901722
-0.878702
-45.1025
-17.872
-140.382
-42.8819
-0.956223
-24.0772
32.5515
13.4216
-0.84751
-0.0380796
3.87163
-9.62132
13.7536
-0.811058
-0.717246
1.72199
1.96904
1.9474
6.32681
-17.9439
-2.95671
-4.34743
-33.5989
3.78996
76.9681
7.34179
94.844
91.06
-0.0539527
-0.66056
-0.901631
22.2712
-0.150811
-1.98539
-0.900403
-6.42647
-0.441573
8.85805
28.2531
-14.8308
-0.917519
-0.897228
-44.8658
16.8425
2.12284
1.97936
-0.129686
20.1993
0.148244
7.81019
-0.919738
60.6523
-24.3279
7.79325
14.9961
-0.301726
11.4306
100.834
-2.34968
-0.974103
-0.569627
-0.883424
61.7726
12.8767
14.2208
-37.2254
-1.14227
-1.54704
-14.1144
-0.000151142
-2.11424
-42.8819
-1.76211
-18.2412
-1.96073
6.14524
-1.32394
-1.16376
17.2571
-1.50477
11.2162
30.631
-85.5366
-0.915678
-6.25526
9.57168
-33.5989
0.0882445
-0.71702
-0.909318
-0.851154
-3.33262
-1.17782
-5.59192
-12.7329
-1.14448
-12.7034
-4.03744
-73.1224
-3.13856
-5.65224
325.383
-0.897228
-0.901021
66.0098
1.77541
0.705346
0.0969088
-5.98792
-24.7472
-5.24761
-11.2619
-15.9204
-17.0336
-1.76427
341.598
2.24175
10.9574
-3.38364
-0.569627
9.46838
351.551
3.82456
529.455
-2.861
-7.16499
-2.08151
-0.969231
-39.6238
-0.0717549
8.52069
-16.7184
26.1042
-44.0263
40.4648
38.2405
6.01219
-1.50477
-0.373911
-0.915293
-0.916549
-4.84946
-0.891183
118.263
23.4031
13.7388
-13.9555
0.674286
-0.801202
2.38866
0.0110338
-15.1874
-1.11636
2.96312
-15.3533
-0.789598
-73.1224
28.242
-1.59408
5.21145
62.8117
-3.64213
-9.35319
-8.46619
0.0071935
1.34363
3.2159
-7.37553
67.216
-25.4839
2.79746
10.9481
-0.757648
-0.359184
0.897787
10.9574
-1.89066
-9.51102
-21.1864
-2.04015
-2.82908
-0.384205
-26.3979
-0.438304
-5.78374
35.1845
-62.5447
16.9607
-27.0565
54.8553
-9.29764
-0.025996
-1.65001
-59.3391
6.01219
-8.03577
-0.905319
-0.559152
52.2106
85.546
-8.72089
-18.4463
21.2354
0.0256758
0.00216482
124.702
-1.75409e-05
-2.47143
-18.033
-16.6744
-8.58722
-4.35425
-0.686542
-1.76188
-0.237201
-0.895538
9.06885
-2.87502
-2.58848
-0.897404
7.30315
-1.1198
-20.1802
-0.887004
-22.2664
-0.865214
-1.76188
-0.919534
-0.18473
-0.892557
135.744
-1.40901
-0.863301
4.86831
-9.36749
-34.7089
1.39623
-13.5576
6.539
-1.68125
-0.914585
-0.886582
283.885
-0.917327
-0.000325938
-5.81523
60.628
126.951
-0.882276
-6.45285
-0.634339
-0.165448
9.84882
-3.54575
-0.898964
-2.36514
0.0517158
44.2969
8.58151
-0.484375
19.2951
-0.902058
-6.28268
-0.90025
-3.87223
-0.91407
-0.0233368
5.03617
319.712
-2.79458
95.9955
-10.7504
-0.0240659
-0.68703
72.2478
-9.95656
-3.98056
67.4262
6.18983
9.3861
-12.3908
-3.29346
24.5922
-1.09736
-11.0762
4.27462
-0.934865
-0.915038
-3.15446
117.329
2.52496
-1.68685
9.74668
-0.0435787
-1.02789
21.6655
-11.5036
-2.52353
46.6308
-29.0553
-3.78177
-15.8757
-0.88025
-88.9284
-0.182957
-2.5047
52.1674
41.6974
42.4683
-0.0351197
-76.6802
-0.542096
-1.62313
1.69694
-2.89958
-0.956223
-3.65089
-26.6288
-0.0870163
20.7852
-4.39744
21.4225
-7.93551
-0.903886
1.27851
-3.2148
5.60648
1.14462
-2.71182
51.7959
3.78996
-0.894657
-42.7145
-5.01938
-1.77492
-0.906033
6.16615
-49.2088
-0.860574
6.52719
-2.69309
78.5854
-2.06527
-0.604821
-3.06719
8.67575
-44.8658
-0.15096
10.8247
2.22362
0.173043
-0.90319
-84.6377
24.4339
-0.0736285
-24.9149
-5.50962
-0.887019
2.93564
-76.0853
90.4334
9.30616
4.66682
-0.883424
-36.8438
-0.287386
-1.84147
-0.536982
40.4916
4.11298
18.8883
-0.269122
1.09738
-3.55354
-10.8861
-5.15128
-0.687607
-0.290062
12.7075
-14.2981
-0.800837
11.2162
-6.56206
-1.27599
-8.47282
36.4253
101.582
39.4519
9.25154
-0.893701
-0.306194
0.0170828
3.6592
-5.27405
-67.5193
10.5787
-0.461214
36.2011
-20.957
3.2809
-3.13856
-0.730107
289.241
-0.878786
-1.03888
-168.778
-47.3504
322.568
11.5945
-14.9145
154.612
-1.49755
-3.79405
-71.5583
-4.85631
19.2837
-2.94813
-25.5544
2.85182
-3.38364
-3.57299
12.1959
-5.35028
14.6735
-3.65811
-24.6162
-12.6851
6.89621
-14.8806
157.533
0.00440454
135.943
-0.608864
0.470279
2.13001
61.5323
-0.706999
-31.1391
-1.50477
-0.00752211
11.0118
-44.2241
-154.514
-2.88506
-35.9547
75.1114
-0.0827824
262.81
46.8388
35.3703
-0.172963
8.26954
13.3412
31.375
23.1925
70.0953
-19.6858
-73.1224
-3.19958
-4.78138
-3.77474
8.37056
-25.3466
5.83914
152.713
-3.28284
-10.7183
-0.355746
27.5042
-76.316
-44.8103
1.40079
8.603
-25.3883
-3.99868
14.0192
0.224892
9.9669
10.1389
-43.4795
-1.15081
-8.60754
1.45695
32.0045
-0.13355
4.74458
-0.237201
-33.9108
-56.7957
-28.4188
-1.39149
59.9489
4.86831
-2.90907
-0.914494
-0.297926
-15.7747
8.15753
0.817382
9.84882
-22.0808
-4.98961
228.081
-5.48866
-2.53354
-6.18397
-2.41531
-10.7504
-0.184803
-32.6837
-6.67637
-0.000448392
10.9299
-4.2241
0.857718
-1.87337
2.52496
-0.246519
-52.0176
10.1161
-2.24544
-0.897156
-0.903201
-0.388751
31.7955
-0.75758
-0.0351197
-0.933401
-0.892419
195.682
34.0163
7.33329
9.93229
125.239
-1.41424
-3.68134
-11.8677
-2.71182
-36.556
6.13838
-2.52313
-16.4378
-11.1247
2.76501
-0.0379924
-0.354582
-0.463241
-0.921176
-0.982431
-0.15096
-0.0238891
14.5114
-64.8206
22.9386
-0.922215
-1.42991
-50.4223
9.19684
-0.685256
-0.898389
-0.954144
4.31236
-1.84147
-0.896281
92.8202
-5.93432
3.0915
16.597
44.2686
-2.13433
51.7475
-0.91471
34.8078
-1.6663
-0.921504
-24.0772
36.4253
-0.333042
-1.27711
-0.0638373
3.40064
-1.31199
-178.127
2.58825
-22.902
-1.18033
-2.64385
-0.0950659
1.60125
5.3198
76.9681
-1.03888
2.91622
4.40822
-0.734518
-1.96672
9.03855
13.0705
-0.570604
8.58154
19.3858
51.3833
-0.00259534
-0.841203
17.3131
-0.901431
16.8425
14.6735
-27.1562
-1.64034
-7.69036
-0.949781
-55.0672
-2.24267
-10.3861
-0.463156
17.5969
-47.3515
51.8017
-3.63578
1.21488
0.0886897
189.767
61.7726
-154.514
-0.900575
-1.04151
1.36969
-8.17053
-45.5322
7.1776
-0.943431
-175.977
22.3798
0.903597
0.608
14.7188
-44.3204
11.9116
0.984617
9.11695
30.631
8.37056
72.3474
-6.26172
-0.684726
21.6771
-1.58577
11.3665
-1.58137
-0.899161
-0.00322957
21.1257
11.1341
1.16653
-1.16799
5.99585
-3.86461
-0.0987394
-1.80377
-5.65224
-1.15081
-0.919758
-2.05486
284.283
43.8752
-0.141001
2.30869
-0.484748
4.96689
-2.53492
-19.5938
58.2401
-37.9989
249.451
-126.424
-1.32555
-4.67276
-6.32453
-0.569627
9.84882
-32.343
-0.910291
-8.0161
7.98996
-0.549122
16.1473
-3.88198
-51.8491
-0.894251
-21.328
0.364139
-0.0669474
-0.625373
-9.72236
29.3078
36.6459
-0.819818
-0.373911
-52.0176
5.34368
7.60316
7.5523
-130.314
1.78282
7.35084
-0.891922
0.409366
3.46897
17.836
103.005
100.726
-4.9061
355.848
212.231
17.0396
-2.11102
28.242
-2.71182
8.65886
1.22397
-3.0885
-0.67873
-0.896242
-9.9032
-0.726033
24.3573
16.5585
-24.8182
15.7067
7.6926
-5.35824
35.2358
-0.531212
-61.3914
9.03743
-1.89066
-50.4223
14.3489
-0.877374
31.9374
-3.31766
5.23361
16.7903
-41.1581
138.365
-0.892789
47.8472
11.758
-77.7355
8.52437
-21.4548
21.7636
19.0037
-15.0087
-4.69439
152.44
25.1811
17.2068
32.7695
-9.58368
-0.895538
-0.464422
58.2253
11.2635
1.48082
69.7536
-9.36749
-10.3861
-3.69031
-36.4917
-10.81
-1.12994
-68.2736
-3.54575
22.3798
7.12508
-0.897488
-19.4965
-0.897543
-0.247803
-4.94335
-0.0240659
21.1257
-7.834
-5.96113
-0.599817
-3.69406
1.67924
-0.549357
-0.343558
-1.68685
-19.5938
-0.918797
12.8122
-20.7111
-2.50171
-31.676
1.55912
13.189
2.78906
-76.6802
-21.328
39.3094
-8.097
12.6852
-2.37034
-3.39897
-0.652173
-4.42063
-0.900907
8.72713
51.7959
17.836
2.49525
-10.7514
4.24582
-60.0229
14.0676
-0.892739
-35.3521
-0.0740686
-0.278496
-0.339305
10.8247
-24.8182
107.395
2.74174
56.6469
27.0779
124.264
-5.93523
0.368117
-9.11253
-23.5324
-87.1281
-14.7402
-0.536982
47.8472
-0.985404
4.51862
-0.675081
97.2854
7.31578
17.4107
20.0572
5.56667
-0.915038
-8.25695
-0.765121
32.5515
101.582
69.7536
-0.902378
-43.2222
-0.890795
2.79308
15.5141
-4.80815
-11.0544
-0.927414
-3.16149
-11.3682
-7.85855
10.9743
7.34179
-168.778
-5.96113
9.16431
-0.870284
-7.31517
-0.813302
14.156
24.8177
-17.1387
18.0589
-73.3876
5.86627
-4.31756
71.5431
-5.13885
2.12284
-3.65811
-8.097
-0.92623
-1.65324
1.96739
-11.1204
17.5989
78.9536
7.03892
52.2726
0.634704
45.7058
20.2518
-25.1513
-0.923473
-139.308
24.0114
-1.57609
25.1191
30.209
1.34131
-0.736822
-0.11004
-57.137
-0.000392191
-33.3855
1.63801
-3.97579
-2.70928
-0.889503
0.316283
12.8767
-2.88506
-0.339305
-6.97832
-10.1795
-7.62208
8.12912
0.585453
-93.8521
-1.78322
127.152
-298.294
8.64761
-7.05311
362.048
19.4183
6.33337
9.66292
35.2119
13.5609
50.0125
137.386
-0.285783
-24.5614
-9.37281
-7.66117
34.3973
0.0298336
2.85963
-120.146
-26.6066
-0.85451
-0.89918
37.4044
-31.107
-6.19785
-85.5366
-25.3466
97.2854
-6.47493
-7.30958
14.5513
6.04929
-1.36828
-11.7337
-17.557
-5.49246
-5.39491
78.9645
142.007
1.311
52.1206
-2.29286
2.26258
333.654
9.8073
-41.3366
-51.6718
2.43908
1.36073
6.08162
17.3056
-11.583
-2.7839
26.1162
-0.923968
-1.05351
-0.0512799
325.383
-8.60754
-3.16149
-17.0059
18.0372
3.8596
8.59756
57.6226
67.5034
1.09523
75.8504
27.6132
111.803
-142.152
-3.95848
98.7524
12.0882
-4.12718
-2.02539
-2.7521
-12.1123
38.5195
-17.7591
-0.652342
-0.904666
-7.90798
9.46838
-22.0808
-5.13885
-0.70001
-0.904185
-0.282575
-3.70709
-0.893459
-4.6057
1.25567
7.84223
-28.7631
-4.05354
-3.64392
35.7639
-0.911366
-81.9451
-22.2812
9.57215
51.5453
-0.915293
10.1161
-1.57609
-1.39037
-173.147
14.6352
-0.579338
-2.398
-222.69
-3.31938
5.72707
26.3935
39.38
37.6539
11.9421
-1.63901
-1.5881
-9.88224
9.61546
-1.59408
-36.556
-7.62208
-8.13596
-35.1327
-0.79081
-5.42893
-13.6718
-0.76832
12.913
-0.828814
15.1975
15.7271
4.04091
0.18129
6.98447
19.3755
0.341606
-38.301
-9.51102
9.19684
-9.37281
17.1412
-0.898819
-78.7354
-0.864373
-43.3203
0.368601
-22.3622
-2.30727
52.9164
9.4456
11.9027
11.5834
-1.0258
7.63081
-77.9458
-2.33733
-7.92212
36.4253
-1.36828
-6.41822
-7.71242
11.829
11.6359
-0.87395
162.549
275.667
-13.5417
0.0562301
-29.4214
-0.144736
57.4089
-0.9175
-0.0451714
70.4447
-139.907
207.989
124.869
99.5835
1.70724
2.08599
13.1168
-6.67573
-34.7089
-0.463156
-32.2184
1.67606
-15.2609
0.744499
-0.910506
-0.898964
0.903597
-0.893459
-6.8137
-0.0886755
-6.16493
-131.78
0.187953
-0.68703
11.1341
-0.579338
0.836518
-1.6989
20.3627
-0.918787
-3.95335
16.0697
9.74668
58.2401
-5.42893
-0.000155056
7.96228
117.317
88.9007
-3.30737
-11.1523
-7.64874
-0.542096
0.364139
-0.864373
2.72984
-11.1375
15.2312
0.0582041
1.71548
-1.44543
-137.3
-7.06844
3.78996
103.005
11.6359
22.3499
74.0127
-77.434
-235.338
-0.799934
2.38456
49.1438
-0.232714
-0.361894
2.22362
15.7067
-6.67573
83.5732
53.2804
10.68
28.3947
-311.175
5.67191
-0.0052568
-2.095
-61.6058
69.2336
40.4916
11.758
0.836518
-12.1144
-0.907237
-45.0973
-3.38055
10.1527
18.8369
-22.0989
-9.3446
3.85642
-2.89345
13.4216
39.4519
-9.36749
2.72984
-0.822101
16.0964
-27.6342
75.8582
-0.562835
-2.5684
5.47066e-06
-0.901438
1.73492
17.7579
6.46667
94.844
-47.3504
-0.599817
-0.361894
-0.911324
5.96653
-28.2711
-0.0297419
-63.8321
-76.8208
151.676
-0.938826
-4.46507
66.6466
-5.47877
2.85842
1.97936
-24.6162
12.6852
-45.0973
-22.7985
-28.4048
19.8056
-4.83066
5.53357
21.7869
-1.97244
-0.108543
0.415934
-29.2331
113.622
-0.875813
8.26444
69.7153
24.0122
36.4004
-21.4808
-13.5251
-30.3585
-1.51188
-6.1547
-3.77908
-152.1
3.19991
-19.3588
-4.55338
-73.5056
4.61384
14.2208
-35.9547
10.8247
-0.901438
-3.60895
0.0395362
10.8428
0.947018
7.82941
9.45163
-0.00118766
14.1245
-17.0415
31.6207
-32.0557
20.8952
-0.464615
-4.6403
181.671
102.508
5.38338
191.96
-17.4192
1.73656
59.4408
-0.89741
-7.01235
-0.350338
-0.925741
-0.915678
5.83914
7.31578
2.85842
-7.09966
20.3979
-1.16511
4.04989
0.00156649
44.5633
-1.49566
4.56453
158.968
1.80549
-2.43828
17.1327
-4.25633
-3.06869
-5.76624
14.0495
0.0884587
-85.5139
-8.77137
-3.78465
-11.8052
-12.1588
-97.3759
-1.72578
62.3634
11.8998
-2.52572
-0.901421
29.7786
18.8136
-15.008
5.98363
14.1795
-0.897228
1.45695
-11.3682
24.0122
7.67575
-13.8994
12.4897
18.0087
-5.10928
-8.48809
6.0631
-35.426
-13.0336
5.18033
-18.5532
-8.59222
41.513
-1.0705
9.23336
320.935
136.862
-21.7065
-94.2742
49.5724
5.60515
17.3433
17.639
9.26065
-0.742816
7.35328
0.0310845
6.45379
16.7387
-0.200081
-0.854544
0.312457
351.551
-4.98961
2.12284
0.0395362
-0.810458
1.04162
-6.60397
3.54669
-5.11881
45.8977
13.9136
-23.8807
-59.5564
6.02836
10.865
-0.897137
5.64739
13.8057
10.7701
-15.8775
5.10087
6.21771
10.0475
-34.1857
23.0791
-21.1409
0.966922
16.7388
-12.6786
-15.6328
3.16432
2.33249
-0.916549
-2.24544
25.1191
59.4408
2.8738
-1.33022
-5.64073
0.983312
-1.558
14.5486
-5.83924
152.575
-2.24165e-05
119.603
21.9484
43.3711
2.07894
-2.25476
18.2262
7.62894
-0.0863872
-12.0657
13.5018
5.21145
6.13838
8.12912
-2.43828
37.5855
0.522409
-8.26129
-1.54613
0.580381
-8.45044
6.22617
326.425
-102.605
-74.0382
-4.71953
10.6936
-0.771134
-3.79583
-5.33329
-21.1864
-0.685256
-7.66117
18.8136
1.65729
55.2011
40.4831
30.7208
4.80566
1.67837
-2.68438
3.87725
12.277
-8.91368
5.67424
43.8135
0.000698562
-3.1293
79.4839
22.4974
-0.333042
-11.7337
-8.59222
-10.9127
-5.69249
-2.44466
0.776933
-4.83379
-3.686
20.2641
-15.0692
105.128
138.25
10.3573
-1.23097
282.855
-31.1454
-4.86678
-37.3401
4.71853
-2.7839
-0.854544
-0.898316
-6.87903
-1.03673
13.7721
4.53433
167.553
0.515444
-122.082
-4.42463
10.7416
16.1578
18.5677
-64.912
21.868
-57.0704
34.4184
14.8253
-1.3661e-05
-0.889641
-2.9735
-1.50139
12.7725
-0.872197
-2.36514
0.608
-4.6057
33.1902
-0.732714
-0.913894
166.019
-0.891645
72.2478
1.16653
-2.398
6.13838
-0.261454
-1.74883
-0.836576
94.9653
-22.079
-0.0435787
-37.9989
-13.6718
-0.685256
-0.916285
-10.5724
19.0119
26.8454